ITEM: TIMESTEP
0
ITEM: NUMBER OF ATOMS
5
ITEM: BOX BOUNDS mm mm mm
-1.0000000000000000e-03 1.0000000000000000e-03
-1.0000000000000000e-03 1.0000000000000000e-03
-1.0000000000000000e-03 1.0000000000000000e-03
ITEM: ATOMS id id mass q x y z
1 1 2.83952e-25 1.60218e-19 2.61679e-07 -5.86795e-08 -2.5e-05
2 2 2.83952e-25 1.60218e-19 -3.79697e-07 -4.58193e-07 -1.25e-05
3 3 2.83952e-25 1.60218e-19 -3.967e-07 -5.56845e-08 0
4 4 2.83952e-25 1.60218e-19 3.36526e-07 7.9254e-08 1.25e-05
5 5 2.83952e-25 1.60218e-19 -3.99177e-07 9.76051e-08 2.5e-05
ITEM: TIMESTEP
100
ITEM: NUMBER OF ATOMS
5
ITEM: BOX BOUNDS mm mm mm
-1.0000000000000000e-03 1.0000000000000000e-03
-1.0000000000000000e-03 1.0000000000000000e-03
-1.0000000000000000e-03 1.0000000000000000e-03
ITEM: ATOMS id id mass q x y z
1 1 2.83952e-25 1.60218e-19 -2.04824e-07 4.35338e-08 -1.74199e-05
2 2 2.83952e-25 1.60218e-19 2.95697e-07 3.5708e-07 -8.48115e-06
3 3 2.83952e-25 1.60218e-19 3.09536e-07 4.17555e-08 1.27762e-09
4 4 2.83952e-25 1.60218e-19 -2.66319e-07 -6.19641e-08 8.47972e-06
5 5 2.83952e-25 1.60218e-19 3.10817e-07 -7.54887e-08 1.74201e-05
ITEM: TIMESTEP
200
ITEM: NUMBER OF ATOMS
5
ITEM: BOX BOUNDS mm mm mm
-1.0000000000000000e-03 1.0000000000000000e-03
-1.0000000000000000e-03 1.0000000000000000e-03
-1.0000000000000000e-03 1.0000000000000000e-03
ITEM: ATOMS id id mass q x y z
1 1 2.83952e-25 1.60218e-19 1.78214e-07 2.56672e-08 -4.83949e-06
2 2 2.83952e-25 1.60218e-19 -2.21207e-07 -3.01472e-07 -2.35942e-06
3 3 2.83952e-25 1.60218e-19 -2.94083e-07 3.09064e-08 2.44831e-08
4 4 2.83952e-25 1.60218e-19 3.63635e-07 6.85426e-08 2.33554e-06
5 5 2.83952e-25 1.60218e-19 -2.22784e-07 4.18729e-08 4.83889e-06
ITEM: TIMESTEP
300
ITEM: NUMBER OF ATOMS
5
ITEM: BOX BOUNDS mm mm mm
-1.0000000000000000e-03 1.0000000000000000e-03
-1.0000000000000000e-03 1.0000000000000000e-03
-1.0000000000000000e-03 1.0000000000000000e-03
ITEM: ATOMS id id mass q x y z
1 1 2.83952e-25 1.60218e-19 -1.86865e-07 -9.19528e-08 -1.45709e-05
2 2 2.83952e-25 1.60218e-19 2.12866e-07 1.9058e-07 -6.68203e-06
3 3 2.83952e-25 1.60218e-19 1.50219e-07 -4.02845e-08 4.92576e-09
4 4 2.83952e-25 1.60218e-19 -3.65115e-07 -9.3552e-08 6.6113e-06
5 5 2.83952e-25 1.60218e-19 1.15434e-07 -1.5136e-08 1.46367e-05
ITEM: TIMESTEP
400
ITEM: NUMBER OF ATOMS
5
ITEM: BOX BOUNDS mm mm mm
-1.0000000000000000e-03 1.0000000000000000e-03
-1.0000000000000000e-03 1.0000000000000000e-03
-1.0000000000000000e-03 1.0000000000000000e-03
ITEM: ATOMS id id mass q x y z
1 1 2.83952e-25 1.60218e-19 8.58446e-08 1.33917e-07 -2.0629e-05
2 2 2.83952e-25 1.60218e-19 -5.79799e-08 -6.52446e-08 -1.00148e-05
3 3 2.83952e-25 1.60218e-19 -8.4736e-08 1.03707e-07 8.98667e-09
4 4 2.83952e-25 1.60218e-19 3.36739e-07 5.35466e-08 9.94748e-06
5 5 2.83952e-25 1.60218e-19 -2.27275e-09 -3.56768e-08 2.06873e-05
ITEM: TIMESTEP
500
ITEM: NUMBER OF ATOMS
5
ITEM: BOX BOUNDS mm mm mm
-1.0000000000000000e-03 1.0000000000000000e-03
-1.0000000000000000e-03 1.0000000000000000e-03
-1.0000000000000000e-03 1.0000000000000000e-03
ITEM: ATOMS id id mass q x y z
1 1 2.83952e-25 1.60218e-19 2.28575e-08 -1.30986e-07 -1.46971e-05
2 2 2.83952e-25 1.60218e-19 -8.73398e-08 -5.42565e-08 -7.16873e-06
3 3 2.83952e-25 1.60218e-19 1.17897e-08 -1.29242e-07 -1.83853e-08
4 4 2.83952e-25 1.60218e-19 -2.22167e-07 -3.62422e-09 7.21262e-06
5 5 2.83952e-25 1.60218e-19 -8.87539e-08 6.89075e-08 1.46716e-05
ITEM: TIMESTEP
600
ITEM: NUMBER OF ATOMS
5
ITEM: BOX BOUNDS mm mm mm
-1.0000000000000000e-03 1.0000000000000000e-03
-1.0000000000000000e-03 1.0000000000000000e-03
-1.0000000000000000e-03 1.0000000000000000e-03
ITEM: ATOMS id id mass q x y z
1 1 2.83952e-25 1.60218e-19 -7.81009e-08 1.11513e-07 -6.2865e-06
2 2 2.83952e-25 1.60218e-19 1.36503e-07 8.29799e-08 -2.91605e-06
3 3 2.83952e-25 1.60218e-19 -1.26341e-08 1.36053e-07 1.53303e-08
4 4 2.83952e-25 1.60218e-19 1.76866e-07 -2.28094e-08 2.8901e-06
5 5 2.83952e-25 1.60218e-19 1.0112e-07 -8.58532e-08 6.29712e-06
ITEM: TIMESTEP
700
ITEM: NUMBER OF ATOMS
5
ITEM: BOX BOUNDS mm mm mm
-1.0000000000000000e-03 1.0000000000000000e-03
-1.0000000000000000e-03 1.0000000000000000e-03
-1.0000000000000000e-03 1.0000000000000000e-03
ITEM: ATOMS id id mass q x y z
1 1 2.83952e-25 1.60218e-19 9.35024e-08 -7.71662e-08 -1.27765e-05
2 2 2.83952e-25 1.60218e-19 -1.18653e-07 -6.48931e-08 -5.87e-06
3 3 2.83952e-25 1.60218e-19 2.38719e-08 -1.1491e-07 3.43851e-08
4 4 2.83952e-25 1.60218e-19 -1.28761e-07 3.45735e-08 5.84544e-06
5 5 2.83952e-25 1.60218e-19 -6.02946e-08 9.19509e-08 1.27667e-05
ITEM: TIMESTEP
800
ITEM: NUMBER OF ATOMS
5
ITEM: BOX BOUNDS mm mm mm
-1.0000000000000000e-03 1.0000000000000000e-03
-1.0000000000000000e-03 1.0000000000000000e-03
-1.0000000000000000e-03 1.0000000000000000e-03
ITEM: ATOMS id id mass q x y z
1 1 2.83952e-25 1.60218e-19 -1.41196e-07 -3.49818e-09 -1.77815e-05
2 2 2.83952e-25 1.60218e-19 1.73968e-07 7.70801e-08 -8.20392e-06
3 3 2.83952e-25 1.60218e-19 -2.65033e-08 7.5629e-08 1.58863e-08
4 4 2.83952e-25 1.60218e-19 -3.30952e-08 -7.47302e-08 8.23541e-06
5 5 2.83952e-25 1.60218e-19 4.62251e-08 -6.11858e-08 1.77341e-05
ITEM: TIMESTEP
900
ITEM: NUMBER OF ATOMS
5
ITEM: BOX BOUNDS mm mm mm
-1.0000000000000000e-03 1.0000000000000000e-03
-1.0000000000000000e-03 1.0000000000000000e-03
-1.0000000000000000e-03 1.0000000000000000e-03
ITEM: ATOMS id id mass q x y z
1 1 2.83952e-25 1.60218e-19 1.44037e-07 7.18579e-08 -1.3577e-05
2 2 2.83952e-25 1.60218e-19 -1.79351e-07 -6.60709e-08 -6.5579e-06
3 3 2.83952e-25 1.60218e-19 2.46634e-08 -2.36592e-08 -1.94535e-08
4 4 2.83952e-25 1.60218e-19 1.62625e-07 9.03819e-08 6.58358e-06
5 5 2.83952e-25 1.60218e-19 -2.16325e-08 1.68192e-08 1.35707e-05
ITEM: TIMESTEP
1000
ITEM: NUMBER OF ATOMS
5
ITEM: BOX BOUNDS mm mm mm
-1.0000000000000000e-03 1.0000000000000000e-03
-1.0000000000000000e-03 1.0000000000000000e-03
-1.0000000000000000e-03 1.0000000000000000e-03
ITEM: ATOMS id id mass q x y z
1 1 2.83952e-25 1.60218e-19 -1.20288e-07 -1.09165e-07 -7.63826e-06
2 2 2.83952e-25 1.60218e-19 1.62849e-07 3.6435e-08 -3.49689e-06
3 3 2.83952e-25 1.60218e-19 -4.03114e-08 -7.63333e-09 -3.33793e-09
4 4 2.83952e-25 1.60218e-19 -2.11868e-07 -8.95071e-08 3.48807e-06
5 5 2.83952e-25 1.60218e-19 -6.43356e-09 2.18004e-08 7.65042e-06
ITEM: TIMESTEP
1100
ITEM: NUMBER OF ATOMS
5
ITEM: BOX BOUNDS mm mm mm
-1.0000000000000000e-03 1.0000000000000000e-03
-1.0000000000000000e-03 1.0000000000000000e-03
-1.0000000000000000e-03 1.0000000000000000e-03
ITEM: ATOMS id id mass q x y z
1 1 2.83952e-25 1.60218e-19 8.49333e-08 1.1735e-07 -1.14487e-05
2 2 2.83952e-25 1.60218e-19 -1.45579e-07 -1.16098e-08 -5.53221e-06
3 3 2.83952e-25 1.60218e-19 5.35418e-08 1.95428e-08 2.32394e-08
4 4 2.83952e-25 1.60218e-19 2.0937e-07 7.8863e-08 5.51546e-06
5 5 2.83952e-25 1.60218e-19 1.92006e-08 -5.23646e-08 1.14422e-05
ITEM: TIMESTEP
1200
ITEM: NUMBER OF ATOMS
5
ITEM: BOX BOUNDS mm mm mm
-1.0000000000000000e-03 1.0000000000000000e-03
-1.0000000000000000e-03 1.0000000000000000e-03
-1.0000000000000000e-03 1.0000000000000000e-03
ITEM: ATOMS id id mass q x y z
1 1 2.83952e-25 1.60218e-19 -3.07477e-08 -9.70628e-08 -1.56721e-05
2 2 2.83952e-25 1.60218e-19 9.68957e-08 3.80398e-09 -7.25078e-06
3 3 2.83952e-25 1.60218e-19 -2.48336e-08 -4.05212e-08 -2.84817e-08
4 4 2.83952e-25 1.60218e-19 -1.91486e-07 -4.95251e-08 7.25601e-06
5 5 2.83952e-25 1.60218e-19 -7.51114e-09 7.52374e-08 1.56954e-05
ITEM: TIMESTEP
1300
ITEM: NUMBER OF ATOMS
5
ITEM: BOX BOUNDS mm mm mm
-1.0000000000000000e-03 1.0000000000000000e-03
-1.0000000000000000e-03 1.0000000000000000e-03
-1.0000000000000000e-03 1.0000000000000000e-03
ITEM: ATOMS id id mass q x y z
1 1 2.83952e-25 1.60218e-19 -2.2318e-08 5.2692e-08 -1.31537e-05
2 2 2.83952e-25 1.60218e-19 -3.34629e-08 -1.78261e-10 -6.17459e-06
3 3 2.83952e-25 1.60218e-19 -9.29024e-09 4.78421e-08 -5.51539e-09
4 4 2.83952e-25 1.60218e-19 1.2958e-07 1.26004e-08 6.16771e-06
5 5 2.83952e-25 1.60218e-19 -9.12162e-09 -7.49971e-08 1.31661e-05
ITEM: TIMESTEP
1400
ITEM: NUMBER OF ATOMS
5
ITEM: BOX BOUNDS mm mm mm
-1.0000000000000000e-03 1.0000000000000000e-03
-1.0000000000000000e-03 1.0000000000000000e-03
-1.0000000000000000e-03 1.0000000000000000e-03
ITEM: ATOMS id id mass q x y z
1 1 2.83952e-25 1.60218e-19 5.11868e-08 -5.67173e-09 -8.72631e-06
2 2 2.83952e-25 1.60218e-19 -7.26482e-09 5.40393e-09 -4.13599e-06
3 3 2.83952e-25 1.60218e-19 3.43983e-08 -3.97761e-08 1.86462e-09
4 4 2.83952e-25 1.60218e-19 -6.05774e-08 1.26371e-08 4.15095e-06
5 5 2.83952e-25 1.60218e-19 2.99906e-08 6.01208e-08 8.70949e-06
ITEM: TIMESTEP
1500
ITEM: NUMBER OF ATOMS
5
ITEM: BOX BOUNDS mm mm mm
-1.0000000000000000e-03 1.0000000000000000e-03
-1.0000000000000000e-03 1.0000000000000000e-03
-1.0000000000000000e-03 1.0000000000000000e-03
ITEM: ATOMS id id mass q x y z
1 1 2.83952e-25 1.60218e-19 -5.96223e-08 -3.30324e-08 -1.08125e-05
2 2 2.83952e-25 1.60218e-19 2.95726e-08 -1.36944e-08 -5.13953e-06
3 3 2.83952e-25 1.60218e-19 -4.80512e-08 2.64089e-08 1.80206e-09
4 4 2.83952e-25 1.60218e-19 4.60779e-09 -2.54122e-08 5.11598e-06
5 5 2.83952e-25 1.60218e-19 -4.62341e-08 -3.63245e-08 1.08342e-05
ITEM: TIMESTEP
1600
ITEM: NUMBER OF ATOMS
5
ITEM: BOX BOUNDS mm mm mm
-1.0000000000000000e-03 1.0000000000000000e-03
-1.0000000000000000e-03 1.0000000000000000e-03
-1.0000000000000000e-03 1.0000000000000000e-03
ITEM: ATOMS id id mass q x y z
1 1 2.83952e-25 1.60218e-19 6.10182e-08 6.15526e-08 -1.41726e-05
2 2 2.83952e-25 1.60218e-19 -7.38288e-08 1.2907e-08 -6.7365e-06
3 3 2.83952e-25 1.60218e-19 6.06888e-08 -1.77825e-08 -9.8923e-09
4 4 2.83952e-25 1.60218e-19 5.32989e-08 4.10421e-08 6.75726e-06
5 5 2.83952e-25 1.60218e-19 4.2152e-08 5.10928e-10 1.41617e-05
ITEM: TIMESTEP
1700
ITEM: NUMBER OF ATOMS
5
ITEM: BOX BOUNDS mm mm mm
-1.0000000000000000e-03 1.0000000000000000e-03
-1.0000000000000000e-03 1.0000000000000000e-03
-1.0000000000000000e-03 1.0000000000000000e-03
ITEM: ATOMS id id mass q x y z
1 1 2.83952e-25 1.60218e-19 -4.85018e-08 -6.914e-08 -1.29083e-05
2 2 2.83952e-25 1.60218e-19 1.01201e-07 -7.14505e-09 -5.99149e-06
3 3 2.83952e-25 1.60218e-19 -5.88963e-08 9.27102e-09 1.48152e-08
4 4 2.83952e-25 1.60218e-19 -8.84156e-08 -4.64662e-08 5.99023e-06
5 5 2.83952e-25 1.60218e-19 -2.43388e-08 3.19572e-08 1.28947e-05
ITEM: TIMESTEP
1800
ITEM: NUMBER OF ATOMS
5
ITEM: BOX BOUNDS mm mm mm
-1.0000000000000000e-03 1.0000000000000000e-03
-1.0000000000000000e-03 1.0000000000000000e-03
-1.0000000000000000e-03 1.0000000000000000e-03
ITEM: ATOMS id id mass q x y z
1 1 2.83952e-25 1.60218e-19 2.82477e-08 5.68812e-08 -9.59323e-06
2 2 2.83952e-25 1.60218e-19 -1.06976e-07 -2.0672e-10 -4.58928e-06
3 3 2.83952e-25 1.60218e-19 4.71944e-08 -4.84665e-09 -1.31632e-08
4 4 2.83952e-25 1.60218e-19 9.15467e-08 4.15839e-08 4.59286e-06
5 5 2.83952e-25 1.60218e-19 1.73257e-09 -5.10944e-08 9.60281e-06
ITEM: TIMESTEP
1900
ITEM: NUMBER OF ATOMS
5
ITEM: BOX BOUNDS mm mm mm
-1.0000000000000000e-03 1.0000000000000000e-03
-1.0000000000000000e-03 1.0000000000000000e-03
-1.0000000000000000e-03 1.0000000000000000e-03
ITEM: ATOMS id id mass q x y z
1 1 2.83952e-25 1.60218e-19 -9.97206e-09 -3.34106e-08 -1.0598e-05
2 2 2.83952e-25 1.60218e-19 1.01077e-07 8.67483e-09 -4.93096e-06
3 3 2.83952e-25 1.60218e-19 -3.26509e-08 5.02892e-09 1.02827e-08
4 4 2.83952e-25 1.60218e-19 -7.43078e-08 -3.31924e-08 4.9261e-06
5 5 2.83952e-25 1.60218e-19 2.12696e-08 5.6611e-08 1.05926e-05
ITEM: TIMESTEP
2000
ITEM: NUMBER OF ATOMS
5
ITEM: BOX BOUNDS mm mm mm
-1.0000000000000000e-03 1.0000000000000000e-03
-1.0000000000000000e-03 1.0000000000000000e-03
-1.0000000000000000e-03 1.0000000000000000e-03
ITEM: ATOMS id id mass q x y z
1 1 2.83952e-25 1.60218e-19 -5.29434e-09 4.97166e-09 -1.31737e-05
2 2 2.83952e-25 1.60218e-19 -7.67411e-08 -1.64995e-08 -6.25769e-06
3 3 2.83952e-25 1.60218e-19 1.3373e-08 -2.74528e-09 -5.18302e-09
4 4 2.83952e-25 1.60218e-19 4.88503e-08 2.20995e-08 6.27199e-06
5 5 2.83952e-25 1.60218e-19 -4.04147e-08 -4.91027e-08 1.31646e-05
ITEM: TIMESTEP
2100
ITEM: NUMBER OF ATOMS
5
ITEM: BOX BOUNDS mm mm mm
-1.0000000000000000e-03 1.0000000000000000e-03
-1.0000000000000000e-03 1.0000000000000000e-03
-1.0000000000000000e-03 1.0000000000000000e-03
ITEM: ATOMS id id mass q x y z
1 1 2.83952e-25 1.60218e-19 1.48178e-08 2.00233e-08 -1.26264e-05
2 2 2.83952e-25 1.60218e-19 3.8169e-08 1.96959e-08 -5.97772e-06
3 3 2.83952e-25 1.60218e-19 5.35926e-09 -6.48243e-10 1.95545e-09
4 4 2.83952e-25 1.60218e-19 -1.80472e-08 -9.17062e-09 5.96222e-06
5 5 2.83952e-25 1.60218e-19 4.74391e-08 3.02307e-08 1.264e-05
ITEM: TIMESTEP
2200
ITEM: NUMBER OF ATOMS
5
ITEM: BOX BOUNDS mm mm mm
-1.0000000000000000e-03 1.0000000000000000e-03
-1.0000000000000000e-03 1.0000000000000000e-03
-1.0000000000000000e-03 1.0000000000000000e-03
ITEM: ATOMS id id mass q x y z
1 1 2.83952e-25 1.60218e-19 -1.61504e-08 -3.44466e-08 -1.03009e-05
2 2 2.83952e-25 1.60218e-19 -1.6864e-09 -1.78335e-08 -4.82389e-06
3 3 2.83952e-25 1.60218e-19 -1.59874e-08 3.02593e-09 -5.37446e-09
4 4 2.83952e-25 1.60218e-19 -7.69991e-09 -4.10691e-10 4.83291e-06
5 5 2.83952e-25 1.60218e-19 -4.22775e-08 -7.76829e-09 1.02972e-05
ITEM: TIMESTEP
2300
ITEM: NUMBER OF ATOMS
5
ITEM: BOX BOUNDS mm mm mm
-1.0000000000000000e-03 1.0000000000000000e-03
-1.0000000000000000e-03 1.0000000000000000e-03
-1.0000000000000000e-03 1.0000000000000000e-03
ITEM: ATOMS id id mass q x y z
1 1 2.83952e-25 1.60218e-19 1.11776e-08 3.66832e-08 -1.0538e-05
2 2 2.83952e-25 1.60218e-19 -2.63714e-08 1.20975e-08 -4.99617e-06
3 3 2.83952e-25 1.60218e-19 1.86864e-08 -5.1996e-09 5.86314e-09
4 4 2.83952e-25 1.60218e-19 2.25693e-08 5.4099e-09 4.99239e-06
5 5 2.83952e-25 1.60218e-19 2.85709e-08 -1.15486e-08 1.05359e-05
ITEM: TIMESTEP
2400
ITEM: NUMBER OF ATOMS
5
ITEM: BOX BOUNDS mm mm mm
-1.0000000000000000e-03 1.0000000000000000e-03
-1.0000000000000000e-03 1.0000000000000000e-03
-1.0000000000000000e-03 1.0000000000000000e-03
ITEM: ATOMS id id mass q x y z
1 1 2.83952e-25 1.60218e-19 -6.9117e-09 -2.95186e-08 -1.25127e-05
2 2 2.83952e-25 1.60218e-19 5.20091e-08 -2.97497e-09 -5.86014e-06
3 3 2.83952e-25 1.60218e-19 -2.00614e-08 8.30939e-09 -8.87809e-09
4 4 2.83952e-25 1.60218e-19 -3.11102e-08 -1.16599e-08 5.86112e-06
5 5 2.83952e-25 1.60218e-19 -7.17029e-09 2.67671e-08 1.25206e-05
ITEM: TIMESTEP
2500
ITEM: NUMBER OF ATOMS
5
ITEM: BOX BOUNDS mm mm mm
-1.0000000000000000e-03 1.0000000000000000e-03
-1.0000000000000000e-03 1.0000000000000000e-03
-1.0000000000000000e-03 1.0000000000000000e-03
ITEM: ATOMS id id mass q x y z
1 1 2.83952e-25 1.60218e-19 3.80425e-09 1.58143e-08 -1.2406e-05
2 2 2.83952e-25 1.60218e-19 -6.60371e-08 -6.32808e-09 -5.89867e-06
3 3 2.83952e-25 1.60218e-19 1.93047e-08 -1.03079e-08 6.46722e-09
4 4 2.83952e-25 1.60218e-19 3.18399e-08 1.67488e-08 5.89394e-06
5 5 2.83952e-25 1.60218e-19 -1.45611e-08 -3.35058e-08 1.24043e-05
ITEM: TIMESTEP
2600
ITEM: NUMBER OF ATOMS
5
ITEM: BOX BOUNDS mm mm mm
-1.0000000000000000e-03 1.0000000000000000e-03
-1.0000000000000000e-03 1.0000000000000000e-03
-1.0000000000000000e-03 1.0000000000000000e-03
ITEM: ATOMS id id mass q x y z
1 1 2.83952e-25 1.60218e-19 -2.33764e-09 -6.28123e-10 -1.07711e-05
2 2 2.83952e-25 1.60218e-19 6.48893e-08 1.28737e-08 -5.0475e-06
3 3 2.83952e-25 1.60218e-19 -1.63593e-08 1.03996e-08 -2.15229e-09
4 4 2.83952e-25 1.60218e-19 -2.55826e-08 -1.89167e-08 5.05508e-06
5 5 2.83952e-25 1.60218e-19 2.98342e-08 3.08431e-08 1.07657e-05
ITEM: TIMESTEP
2700
ITEM: NUMBER OF ATOMS
5
ITEM: BOX BOUNDS mm mm mm
-1.0000000000000000e-03 1.0000000000000000e-03
-1.0000000000000000e-03 1.0000000000000000e-03
-1.0000000000000000e-03 1.0000000000000000e-03
ITEM: ATOMS id id mass q x y z
1 1 2.83952e-25 1.60218e-19 3.428e-09 -1.1334e-08 -1.06329e-05
2 2 2.83952e-25 1.60218e-19 -5.3455e-08 -1.54837e-08 -5.04334e-06
3 3 2.83952e-25 1.60218e-19 1.37143e-08 -8.93945e-09 -7.01733e-10
4 4 2.83952e-25 1.60218e-19 1.68437e-08 1.93421e-08 5.03709e-06
5 5 2.83952e-25 1.60218e-19 -3.62616e-08 -2.17796e-08 1.06398e-05
ITEM: TIMESTEP
2800
ITEM: NUMBER OF ATOMS
5
ITEM: BOX BOUNDS mm mm mm
-1.0000000000000000e-03 1.0000000000000000e-03
-1.0000000000000000e-03 1.0000000000000000e-03
-1.0000000000000000e-03 1.0000000000000000e-03
ITEM: ATOMS id id mass q x y z
1 1 2.83952e-25 1.60218e-19 -5.67271e-09 1.80318e-08 -1.20453e-05
2 2 2.83952e-25 1.60218e-19 3.42515e-08 1.38996e-08 -5.66732e-06
3 3 2.83952e-25 1.60218e-19 -1.1442e-08 5.88005e-09 2.09152e-11
4 4 2.83952e-25 1.60218e-19 -7.65136e-09 -1.77281e-08 5.67221e-06
5 5 2.83952e-25 1.60218e-19 3.34945e-08 9.37273e-09 1.20404e-05
ITEM: TIMESTEP
2900
ITEM: NUMBER OF ATOMS
5
ITEM: BOX BOUNDS mm mm mm
-1.0000000000000000e-03 1.0000000000000000e-03
-1.0000000000000000e-03 1.0000000000000000e-03
-1.0000000000000000e-03 1.0000000000000000e-03
ITEM: ATOMS id id mass q x y z
1 1 2.83952e-25 1.60218e-19 7.02475e-09 -1.86555e-08 -1.22259e-05
2 2 2.83952e-25 1.60218e-19 -1.09098e-08 -8.72083e-09 -5.75407e-06
3 3 2.83952e-25 1.60218e-19 8.55486e-09 -2.00292e-09 3.7345e-09
4 4 2.83952e-25 1.60218e-19 -1.03591e-09 1.31936e-08 5.75233e-06
5 5 2.83952e-25 1.60218e-19 -2.26285e-08 3.16766e-09 1.22239e-05
ITEM: TIMESTEP
3000
ITEM: NUMBER OF ATOMS
5
ITEM: BOX BOUNDS mm mm mm
-1.0000000000000000e-03 1.0000000000000000e-03
-1.0000000000000000e-03 1.0000000000000000e-03
-1.0000000000000000e-03 1.0000000000000000e-03
ITEM: ATOMS id id mass q x y z
1 1 2.83952e-25 1.60218e-19 -7.05194e-09 1.39662e-08 -1.10628e-05
2 2 2.83952e-25 1.60218e-19 -9.50355e-09 1.97018e-09 -5.24152e-06
3 3 2.83952e-25 1.60218e-19 -5.63768e-09 -1.40666e-09 -4.62891e-09
4 4 2.83952e-25 1.60218e-19 7.2128e-09 -7.16433e-09 5.24172e-06
5 5 2.83952e-25 1.60218e-19 7.94268e-09 -1.21886e-08 1.10672e-05
ITEM: TIMESTEP
3100
ITEM: NUMBER OF ATOMS
5
ITEM: BOX BOUNDS mm mm mm
-1.0000000000000000e-03 1.0000000000000000e-03
-1.0000000000000000e-03 1.0000000000000000e-03
-1.0000000000000000e-03 1.0000000000000000e-03
ITEM: ATOMS id id mass q x y z
1 1 2.83952e-25 1.60218e-19 5.32513e-09 -6.46763e-09 -1.08002e-05
2 2 2.83952e-25 1.60218e-19 2.28975e-08 4.34156e-09 -5.07058e-06
3 3 2.83952e-25 1.60218e-19 2.95584e-09 3.46456e-09 2.44292e-09
4 4 2.83952e-25 1.60218e-19 -1.05801e-08 9.09161e-10 5.07096e-06
5 5 2.83952e-25 1.60218e-19 6.16056e-09 1.60915e-08 1.07974e-05
ITEM: TIMESTEP
3200
ITEM: NUMBER OF ATOMS
5
ITEM: BOX BOUNDS mm mm mm
-1.0000000000000000e-03 1.0000000000000000e-03
-1.0000000000000000e-03 1.0000000000000000e-03
-1.0000000000000000e-03 1.0000000000000000e-03
ITEM: ATOMS id id mass q x y z
1 1 2.83952e-25 1.60218e-19 -1.2528e-09 -1.19233e-09 -1.17332e-05
2 2 2.83952e-25 1.60218e-19 -3.02376e-08 -8.94873e-09 -5.55797e-06
3 3 2.83952e-25 1.60218e-19 1.09306e-09 -4.34256e-09 -8.4802e-11
4 4 2.83952e-25 1.60218e-19 1.24197e-08 5.88407e-09 5.55911e-06
5 5 2.83952e-25 1.60218e-19 -1.71097e-08 -1.54474e-08 1.17321e-05
ITEM: TIMESTEP
3300
ITEM: NUMBER OF ATOMS
5
ITEM: BOX BOUNDS mm mm mm
-1.0000000000000000e-03 1.0000000000000000e-03
-1.0000000000000000e-03 1.0000000000000000e-03
-1.0000000000000000e-03 1.0000000000000000e-03
ITEM: ATOMS id id mass q x y z
1 1 2.83952e-25 1.60218e-19 -3.97013e-09 6.97309e-09 -1.20428e-05
2 2 2.83952e-25 1.60218e-19 3.11282e-08 1.08261e-08 -5.66411e-06
3 3 2.83952e-25 1.60218e-19 -5.92831e-09 4.13716e-09 -1.14425e-09
4 4 2.83952e-25 1.60218e-19 -1.26248e-08 -1.17945e-08 5.66099e-06
5 5 2.83952e-25 1.60218e-19 2.26597e-08 1.12852e-08 1.20471e-05
ITEM: TIMESTEP
3400
ITEM: NUMBER OF ATOMS
5
ITEM: BOX BOUNDS mm mm mm
-1.0000000000000000e-03 1.0000000000000000e-03
-1.0000000000000000e-03 1.0000000000000000e-03
-1.0000000000000000e-03 1.0000000000000000e-03
ITEM: ATOMS id id mass q x y z
1 1 2.83952e-25 1.60218e-19 8.50146e-09 -9.56929e-09 -1.12732e-05
2 2 2.83952e-25 1.60218e-19 -2.59729e-08 -9.79641e-09 -5.32421e-06
3 3 2.83952e-25 1.60218e-19 9.86938e-09 -3.0428e-09 3.76165e-10
4 4 2.83952e-25 1.60218e-19 1.11578e-08 1.50816e-08 5.32634e-06
5 5 2.83952e-25 1.60218e-19 -2.19583e-08 -5.28523e-09 1.12707e-05
ITEM: TIMESTEP
3500
ITEM: NUMBER OF ATOMS
5
ITEM: BOX BOUNDS mm mm mm
-1.0000000000000000e-03 1.0000000000000000e-03
-1.0000000000000000e-03 1.0000000000000000e-03
-1.0000000000000000e-03 1.0000000000000000e-03
ITEM: ATOMS id id mass q x y z
1 1 2.83952e-25 1.60218e-19 -1.12336e-08 8.86033e-09 -1.09396e-05
2 2 2.83952e-25 1.60218e-19 1.76435e-08 6.67722e-09 -5.1573e-06
3 3 2.83952e-25 1.60218e-19 -1.22618e-08 1.66729e-09 4.13698e-10
4 4 2.83952e-25 1.60218e-19 -8.67535e-09 -1.54615e-08 5.15754e-06
5 5 2.83952e-25 1.60218e-19 1.64346e-08 -4.3611e-10 1.0939e-05
ITEM: TIMESTEP
3600
ITEM: NUMBER OF ATOMS
5
ITEM: BOX BOUNDS mm mm mm
-1.0000000000000000e-03 1.0000000000000000e-03
-1.0000000000000000e-03 1.0000000000000000e-03
-1.0000000000000000e-03 1.0000000000000000e-03
ITEM: ATOMS id id mass q x y z
1 1 2.83952e-25 1.60218e-19 1.1382e-08 -5.80236e-09 -1.15607e-05
2 2 2.83952e-25 1.60218e-19 -8.52151e-09 -2.4481e-09 -5.45065e-06
3 3 2.83952e-25 1.60218e-19 1.27495e-08 -6.62916e-10 -1.07311e-09
4 4 2.83952e-25 1.60218e-19 5.06711e-09 1.30042e-08 5.4488e-06
5 5 2.83952e-25 1.60218e-19 -8.12365e-09 4.5126e-09 1.15636e-05
ITEM: TIMESTEP
3700
ITEM: NUMBER OF ATOMS
5
ITEM: BOX BOUNDS mm mm mm
-1.0000000000000000e-03 1.0000000000000000e-03
-1.0000000000000000e-03 1.0000000000000000e-03
-1.0000000000000000e-03 1.0000000000000000e-03
ITEM: ATOMS id id mass q x y z
1 1 2.83952e-25 1.60218e-19 -8.75478e-09 1.70449e-09 -1.1879e-05
2 2 2.83952e-25 1.60218e-19 7.16518e-11 -1.82866e-09 -5.61345e-06
3 3 2.83952e-25 1.60218e-19 -1.09261e-08 2.79137e-10 8.82643e-10
4 4 2.83952e-25 1.60218e-19 -4.6522e-10 -8.09499e-09 5.61482e-06
5 5 2.83952e-25 1.60218e-19 -7.66723e-10 -6.34339e-09 1.18767e-05
ITEM: TIMESTEP
3800
ITEM: NUMBER OF ATOMS
5
ITEM: BOX BOUNDS mm mm mm
-1.0000000000000000e-03 1.0000000000000000e-03
-1.0000000000000000e-03 1.0000000000000000e-03
-1.0000000000000000e-03 1.0000000000000000e-03
ITEM: ATOMS id id mass q x y z
1 1 2.83952e-25 1.60218e-19 4.23539e-09 2.07818e-09 -1.14015e-05
2 2 2.83952e-25 1.60218e-19 6.02552e-09 5.02136e-09 -5.36391e-06
3 3 2.83952e-25 1.60218e-19 7.30957e-09 -4.77808e-10 4.01717e-10
4 4 2.83952e-25 1.60218e-19 -4.09137e-09 2.11627e-09 5.36403e-06
5 5 2.83952e-25 1.60218e-19 7.90103e-09 5.9148e-09 1.1401e-05
ITEM: TIMESTEP
3900
ITEM: NUMBER OF ATOMS
5
ITEM: BOX BOUNDS mm mm mm
-1.0000000000000000e-03 1.0000000000000000e-03
-1.0000000000000000e-03 1.0000000000000000e-03
-1.0000000000000000e-03 1.0000000000000000e-03
ITEM: ATOMS id id mass q x y z
1 1 2.83952e-25 1.60218e-19 8.18315e-10 -4.50127e-09 -1.10643e-05
2 2 2.83952e-25 1.60218e-19 -9.07078e-09 -6.56227e-09 -5.23227e-06
3 3 2.83952e-25 1.60218e-19 -2.92766e-09 1.08573e-09 -1.43694e-09
4 4 2.83952e-25 1.60218e-19 7.79606e-09 3.4272e-09 5.23171e-06
5 5 2.83952e-25 1.60218e-19 -1.18522e-08 -3.8915e-09 1.10663e-05
ITEM: TIMESTEP
4000
ITEM: NUMBER OF ATOMS
5
ITEM: BOX BOUNDS mm mm mm
-1.0000000000000000e-03 1.0000000000000000e-03
-1.0000000000000000e-03 1.0000000000000000e-03
-1.0000000000000000e-03 1.0000000000000000e-03
ITEM: ATOMS id id mass q x y z
1 1 2.83952e-25 1.60218e-19 -5.30594e-09 5.13608e-09 -1.14618e-05
2 2 2.83952e-25 1.60218e-19 9.86095e-09 6.49936e-09 -5.39536e-06
3 3 2.83952e-25 1.60218e-19 -1.46903e-09 -1.66107e-09 1.50306e-09
4 4 2.83952e-25 1.60218e-19 -1.02425e-08 -7.65981e-09 5.39553e-06
5 5 2.83952e-25 1.60218e-19 1.25244e-08 1.36434e-09 1.14601e-05
ITEM: TIMESTEP
4100
ITEM: NUMBER OF ATOMS
5
ITEM: BOX BOUNDS mm mm mm
-1.0000000000000000e-03 1.0000000000000000e-03
-1.0000000000000000e-03 1.0000000000000000e-03
-1.0000000000000000e-03 1.0000000000000000e-03
ITEM: ATOMS id id mass q x y z
1 1 2.83952e-25 1.60218e-19 8.20593e-09 -4.13238e-09 -1.17541e-05
2 2 2.83952e-25 1.60218e-19 -9.15992e-09 -5.12512e-09 -5.5495e-06
3 3 2.83952e-25 1.60218e-19 5.09105e-09 1.77841e-09 -5.33449e-10
4 4 2.83952e-25 1.60218e-19 1.08493e-08 9.86424e-09 5.55033e-06
5 5 2.83952e-25 1.60218e-19 -1.03988e-08 7.58913e-10 1.17538e-05
ITEM: TIMESTEP
4200
ITEM: NUMBER OF ATOMS
5
ITEM: BOX BOUNDS mm mm mm
-1.0000000000000000e-03 1.0000000000000000e-03
-1.0000000000000000e-03 1.0000000000000000e-03
-1.0000000000000000e-03 1.0000000000000000e-03
ITEM: ATOMS id id mass q x y z
1 1 2.83952e-25 1.60218e-19 -8.87217e-09 2.06246e-09 -1.14612e-05
2 2 2.83952e-25 1.60218e-19 7.44236e-09 2.97407e-09 -5.40705e-06
3 3 2.83952e-25 1.60218e-19 -7.13394e-09 -1.32139e-09 -2.61517e-10
4 4 2.83952e-25 1.60218e-19 -9.42362e-09 -9.68462e-09 5.40551e-06
5 5 2.83952e-25 1.60218e-19 6.44297e-09 -1.94243e-09 1.1463e-05
ITEM: TIMESTEP
4300
ITEM: NUMBER OF ATOMS
5
ITEM: BOX BOUNDS mm mm mm
-1.0000000000000000e-03 1.0000000000000000e-03
-1.0000000000000000e-03 1.0000000000000000e-03
-1.0000000000000000e-03 1.0000000000000000e-03
ITEM: ATOMS id id mass q x y z
1 1 2.83952e-25 1.60218e-19 7.43707e-09 2.87223e-10 -1.11802e-05
2 2 2.83952e-25 1.60218e-19 -5.40259e-09 -7.24507e-10 -5.269e-06
3 3 2.83952e-25 1.60218e-19 7.36964e-09 3.79161e-10 5.2907e-11
4 4 2.83952e-25 1.60218e-19 6.424e-09 7.52099e-09 5.27054e-06
5 5 2.83952e-25 1.60218e-19 -1.99533e-09 2.0174e-09 1.11786e-05
ITEM: TIMESTEP
4400
ITEM: NUMBER OF ATOMS
5
ITEM: BOX BOUNDS mm mm mm
-1.0000000000000000e-03 1.0000000000000000e-03
-1.0000000000000000e-03 1.0000000000000000e-03
-1.0000000000000000e-03 1.0000000000000000e-03
ITEM: ATOMS id id mass q x y z
1 1 2.83952e-25 1.60218e-19 -4.52668e-09 -2.19661e-09 -1.14011e-05
2 2 2.83952e-25 1.60218e-19 3.47586e-09 -1.17627e-09 -5.38413e-06
3 3 2.83952e-25 1.60218e-19 -6.16575e-09 8.88439e-10 6.54336e-10
4 4 2.83952e-25 1.60218e-19 -2.38882e-09 -4.15502e-09 5.38318e-06
5 5 2.83952e-25 1.60218e-19 -1.88358e-09 -1.23446e-09 1.14013e-05
ITEM: TIMESTEP
4500
ITEM: NUMBER OF ATOMS
5
ITEM: BOX BOUNDS mm mm mm
-1.0000000000000000e-03 1.0000000000000000e-03
-1.0000000000000000e-03 1.0000000000000000e-03
-1.0000000000000000e-03 1.0000000000000000e-03
ITEM: ATOMS id id mass q x y z
1 1 2.83952e-25 1.60218e-19 9.85924e-10 3.19196e-09 -1.16603e-05
2 2 2.83952e-25 1.60218e-19 -1.67973e-09 2.49181e-09 -5.4926e-06
3 3 2.83952e-25 1.60218e-19 4.06107e-09 -2.14388e-09 -1.24749e-09
4 4 2.83952e-25 1.60218e-19 -1.97718e-09 4.46516e-10 5.49285e-06
5 5 2.83952e-25 1.60218e-19 4.58266e-09 1.06993e-10 1.16613e-05
ITEM: TIMESTEP
4600
ITEM: NUMBER OF ATOMS
5
ITEM: BOX BOUNDS mm mm mm
-1.0000000000000000e-03 1.0000000000000000e-03
-1.0000000000000000e-03 1.0000000000000000e-03
-1.0000000000000000e-03 1.0000000000000000e-03
ITEM: ATOMS id id mass q x y z
1 1 2.83952e-25 1.60218e-19 2.21159e-09 -3.12983e-09 -1.14907e-05
2 2 2.83952e-25 1.60218e-19 7.67989e-11 -3.08632e-09 -5.42688e-06
3 3 2.83952e-25 1.60218e-19 -1.70082e-09 2.99848e-09 1.17448e-09
4 4 2.83952e-25 1.60218e-19 5.66764e-09 2.69065e-09 5.42667e-06
5 5 2.83952e-25 1.60218e-19 -5.7459e-09 8.76075e-10 1.14897e-05
ITEM: TIMESTEP
4700
ITEM: NUMBER OF ATOMS
5
ITEM: BOX BOUNDS mm mm mm
-1.0000000000000000e-03 1.0000000000000000e-03
-1.0000000000000000e-03 1.0000000000000000e-03
-1.0000000000000000e-03 1.0000000000000000e-03
ITEM: ATOMS id id mass q x y z
1 1 2.83952e-25 1.60218e-19 -4.31427e-09 2.19337e-09 -1.12636e-05
2 2 2.83952e-25 1.60218e-19 1.26561e-09 3.02492e-09 -5.30723e-06
3 3 2.83952e-25 1.60218e-19 -2.78932e-10 -3.22875e-09 -6.70455e-10
4 4 2.83952e-25 1.60218e-19 -7.94833e-09 -4.60345e-09 5.30798e-06
5 5 2.83952e-25 1.60218e-19 5.47246e-09 -1.36348e-09 1.12635e-05
ITEM: TIMESTEP
4800
ITEM: NUMBER OF ATOMS
5
ITEM: BOX BOUNDS mm mm mm
-1.0000000000000000e-03 1.0000000000000000e-03
-1.0000000000000000e-03 1.0000000000000000e-03
-1.0000000000000000e-03 1.0000000000000000e-03
ITEM: ATOMS id id mass q x y z
1 1 2.83952e-25 1.60218e-19 5.0314e-09 -7.67458e-10 -1.13793e-05
2 2 2.83952e-25 1.60218e-19 -2.41698e-09 -2.52963e-09 -5.3714e-06
3 3 2.83952e-25 1.60218e-19 1.51682e-09 2.77555e-09 2.24457e-10
4 4 2.83952e-25 1.60218e-19 8.55466e-09 5.11303e-09 5.37016e-06
5 5 2.83952e-25 1.60218e-19 -4.22088e-09 1.20998e-09 1.13803e-05
ITEM: TIMESTEP
4900
ITEM: NUMBER OF ATOMS
5
ITEM: BOX BOUNDS mm mm mm
-1.0000000000000000e-03 1.0000000000000000e-03
-1.0000000000000000e-03 1.0000000000000000e-03
-1.0000000000000000e-03 1.0000000000000000e-03
ITEM: ATOMS id id mass q x y z
1 1 2.83952e-25 1.60218e-19 -4.449e-09 -6.99828e-10 -1.15851e-05
2 2 2.83952e-25 1.60218e-19 3.33827e-09 1.79908e-09 -5.46326e-06
3 3 2.83952e-25 1.60218e-19 -1.96664e-09 -1.73243e-09 -1.46224e-10
4 4 2.83952e-25 1.60218e-19 -7.50128e-09 -4.38071e-09 5.46453e-06
5 5 2.83952e-25 1.60218e-19 2.48731e-09 -5.31486e-10 1.1584e-05
ITEM: TIMESTEP
5000
ITEM: NUMBER OF ATOMS
5
ITEM: BOX BOUNDS mm mm mm
-1.0000000000000000e-03 1.0000000000000000e-03
-1.0000000000000000e-03 1.0000000000000000e-03
-1.0000000000000000e-03 1.0000000000000000e-03
ITEM: ATOMS id id mass q x y z
1 1 2.83952e-25 1.60218e-19 2.93961e-09 1.80712e-09 -1.15033e-05
2 2 2.83952e-25 1.60218e-19 -3.83023e-09 -1.00031e-09 -5.42429e-06
3 3 2.83952e-25 1.60218e-19 1.75004e-09 3.83581e-10 4.81849e-10
4 4 2.83952e-25 1.60218e-19 5.14604e-09 2.80009e-09 5.42351e-06
5 5 2.83952e-25 1.60218e-19 -7.251e-10 -3.71611e-10 1.15036e-05
ITEM: TIMESTEP
5100
ITEM: NUMBER OF ATOMS
5
ITEM: BOX BOUNDS mm mm mm
-1.0000000000000000e-03 1.0000000000000000e-03
-1.0000000000000000e-03 1.0000000000000000e-03
-1.0000000000000000e-03 1.0000000000000000e-03
ITEM: ATOMS id id mass q x y z
1 1 2.83952e-25 1.60218e-19 -1.06667e-09 -2.31248e-09 -1.13217e-05
2 2 2.83952e-25 1.60218e-19 3.77023e-09 2.73667e-10 -5.3437e-06
3 3 2.83952e-25 1.60218e-19 -1.14297e-09 9.19072e-10 -8.13598e-10
4 4 2.83952e-25 1.60218e-19 -2.15501e-09 -9.24965e-10 5.34404e-06
5 5 2.83952e-25 1.60218e-19 -6.92604e-10 1.16265e-09 1.13221e-05
ITEM: TIMESTEP
5200
ITEM: NUMBER OF ATOMS
5
ITEM: BOX BOUNDS mm mm mm
-1.0000000000000000e-03 1.0000000000000000e-03
-1.0000000000000000e-03 1.0000000000000000e-03
-1.0000000000000000e-03 1.0000000000000000e-03
ITEM: ATOMS id id mass q x y z
1 1 2.83952e-25 1.60218e-19 -6.25565e-10 2.17538e-09 -1.13783e-05
2 2 2.83952e-25 1.60218e-19 -3.13016e-09 3.25764e-10 -5.36291e-06
3 3 2.83952e-25 1.60218e-19 4.96885e-10 -1.89322e-09 8.38525e-10
4 4 2.83952e-25 1.60218e-19 -8.16694e-10 -7.28733e-10 5.36267e-06