ITEM: TIMESTEP
0
ITEM: NUMBER OF ATOMS
5
ITEM: BOX BOUNDS mm mm mm
-1.0000000000000000e-03 1.0000000000000000e-03
-1.0000000000000000e-03 1.0000000000000000e-03
-1.0000000000000000e-03 1.0000000000000000e-03
ITEM: ATOMS id id mass q x y z
1 1 2.83952e-25 1.60218e-19 -3.61533e-07 -2.37647e-07 -2.5e-05
2 2 2.83952e-25 1.60218e-19 -3.64794e-07 2.46399e-07 -1.25e-05
3 3 2.83952e-25 1.60218e-19 1.65762e-07 -2.32676e-07 0
4 4 2.83952e-25 1.60218e-19 2.60307e-07 1.84048e-07 1.25e-05
5 5 2.29154e-25 1.60218e-19 4.86117e-07 -1.66241e-07 2.5e-05
ITEM: TIMESTEP
100
ITEM: NUMBER OF ATOMS
5
ITEM: BOX BOUNDS mm mm mm
-1.0000000000000000e-03 1.0000000000000000e-03
-1.0000000000000000e-03 1.0000000000000000e-03
-1.0000000000000000e-03 1.0000000000000000e-03
ITEM: ATOMS id id mass q x y z
1 1 2.83952e-25 1.60218e-19 6.98056e-08 4.39593e-08 -2.35294e-05
2 2 2.83952e-25 1.60218e-19 6.80376e-08 -4.35223e-08 -1.16151e-05
3 3 2.83952e-25 1.60218e-19 -2.99342e-08 4.10814e-08 -1.27007e-09
4 4 2.83952e-25 1.60218e-19 -4.90898e-08 -3.28219e-08 1.16111e-05
5 5 2.29154e-25 1.60218e-19 -3.82505e-07 1.30356e-07 2.31908e-05
ITEM: TIMESTEP
200
ITEM: NUMBER OF ATOMS
5
ITEM: BOX BOUNDS mm mm mm
-1.0000000000000000e-03 1.0000000000000000e-03
-1.0000000000000000e-03 1.0000000000000000e-03
-1.0000000000000000e-03 1.0000000000000000e-03
ITEM: ATOMS id id mass q x y z
1 1 2.83952e-25 1.60218e-19 2.86323e-07 1.89956e-07 -1.97598e-05
2 2 2.83952e-25 1.60218e-19 2.91402e-07 -1.99082e-07 -9.3717e-06
3 3 2.83952e-25 1.60218e-19 -1.33406e-07 1.88228e-07 -1.40068e-08
4 4 2.83952e-25 1.60218e-19 -2.07217e-07 -1.48636e-07 9.29701e-06
5 5 2.29154e-25 1.60218e-19 1.77884e-07 -5.94502e-08 1.8709e-05
ITEM: TIMESTEP
300
ITEM: NUMBER OF ATOMS
5
ITEM: BOX BOUNDS mm mm mm
-1.0000000000000000e-03 1.0000000000000000e-03
-1.0000000000000000e-03 1.0000000000000000e-03
-1.0000000000000000e-03 1.0000000000000000e-03
ITEM: ATOMS id id mass q x y z
1 1 2.83952e-25 1.60218e-19 -1.75122e-07 -1.08778e-07 -1.51114e-05
2 2 2.83952e-25 1.60218e-19 -1.65705e-07 1.03373e-07 -6.79213e-06
3 3 2.83952e-25 1.60218e-19 7.11715e-08 -9.48788e-08 -9.55571e-08
4 4 2.83952e-25 1.60218e-19 1.20226e-07 7.7077e-08 6.40794e-06
5 5 2.29154e-25 1.60218e-19 5.11599e-08 -1.7962e-08 1.37437e-05
ITEM: TIMESTEP
400
ITEM: NUMBER OF ATOMS
5
ITEM: BOX BOUNDS mm mm mm
-1.0000000000000000e-03 1.0000000000000000e-03
-1.0000000000000000e-03 1.0000000000000000e-03
-1.0000000000000000e-03 1.0000000000000000e-03
ITEM: ATOMS id id mass q x y z
1 1 2.83952e-25 1.60218e-19 -1.80978e-07 -1.29958e-07 -1.16599e-05
2 2 2.83952e-25 1.60218e-19 -2.06359e-07 1.54325e-07 -5.57261e-06
3 3 2.83952e-25 1.60218e-19 1.01542e-07 -1.53087e-07 -4.24751e-07
4 4 2.83952e-25 1.60218e-19 1.39805e-07 1.16653e-07 4.7039e-06
5 5 2.29154e-25 1.60218e-19 -2.34449e-07 7.64765e-08 1.11139e-05
ITEM: TIMESTEP
500
ITEM: NUMBER OF ATOMS
5
ITEM: BOX BOUNDS mm mm mm
-1.0000000000000000e-03 1.0000000000000000e-03
-1.0000000000000000e-03 1.0000000000000000e-03
-1.0000000000000000e-03 1.0000000000000000e-03
ITEM: ATOMS id id mass q x y z
1 1 2.83952e-25 1.60218e-19 2.23911e-07 1.27163e-07 -1.19915e-05
2 2 2.83952e-25 1.60218e-19 1.9027e-07 -1.01259e-07 -6.30344e-06
3 3 2.83952e-25 1.60218e-19 -7.17121e-08 8.47789e-08 -5.64536e-07
4 4 2.83952e-25 1.60218e-19 -1.38483e-07 -8.23453e-08 5.58968e-06
5 5 2.29154e-25 1.60218e-19 3.25735e-07 -1.08085e-07 1.24215e-05
ITEM: TIMESTEP
600
ITEM: NUMBER OF ATOMS
5
ITEM: BOX BOUNDS mm mm mm
-1.0000000000000000e-03 1.0000000000000000e-03
-1.0000000000000000e-03 1.0000000000000000e-03
-1.0000000000000000e-03 1.0000000000000000e-03
ITEM: ATOMS id id mass q x y z
1 1 2.83952e-25 1.60218e-19 7.31006e-08 7.90921e-08 -1.56939e-05
2 2 2.83952e-25 1.60218e-19 1.24632e-07 -1.25091e-07 -7.37119e-06
3 3 2.83952e-25 1.60218e-19 -7.94985e-08 1.25804e-07 1.29723e-08
4 4 2.83952e-25 1.60218e-19 -8.52002e-08 -8.24977e-08 7.56895e-06
5 5 2.29154e-25 1.60218e-19 -3.14018e-07 1.06598e-07 1.61228e-05
ITEM: TIMESTEP
700
ITEM: NUMBER OF ATOMS
5
ITEM: BOX BOUNDS mm mm mm
-1.0000000000000000e-03 1.0000000000000000e-03
-1.0000000000000000e-03 1.0000000000000000e-03
-1.0000000000000000e-03 1.0000000000000000e-03
ITEM: ATOMS id id mass q x y z
1 1 2.83952e-25 1.60218e-19 -2.24418e-07 -1.33777e-07 -1.93e-05
2 2 2.83952e-25 1.60218e-19 -2.02102e-07 1.17375e-07 -8.38624e-06
3 3 2.83952e-25 1.60218e-19 8.35336e-08 -1.02735e-07 6.7221e-07
4 4 2.83952e-25 1.60218e-19 1.52768e-07 9.22575e-08 9.40646e-06
5 5 2.29154e-25 1.60218e-19 2.13885e-07 -7.27157e-08 1.94583e-05
ITEM: TIMESTEP
800
ITEM: NUMBER OF ATOMS
5
ITEM: BOX BOUNDS mm mm mm
-1.0000000000000000e-03 1.0000000000000000e-03
-1.0000000000000000e-03 1.0000000000000000e-03
-1.0000000000000000e-03 1.0000000000000000e-03
ITEM: ATOMS id id mass q x y z
1 1 2.83952e-25 1.60218e-19 2.57406e-08 -1.83413e-08 -2.10153e-05
2 2 2.83952e-25 1.60218e-19 -3.4103e-08 6.97826e-08 -8.98553e-06
3 3 2.83952e-25 1.60218e-19 4.07989e-08 -7.76353e-08 9.88268e-07
4 4 2.83952e-25 1.60218e-19 1.65931e-08 4.1341e-08 1.04646e-05
5 5 2.29154e-25 1.60218e-19 -6.3358e-08 2.08933e-08 2.08644e-05
ITEM: TIMESTEP
900
ITEM: NUMBER OF ATOMS
5
ITEM: BOX BOUNDS mm mm mm
-1.0000000000000000e-03 1.0000000000000000e-03
-1.0000000000000000e-03 1.0000000000000000e-03
-1.0000000000000000e-03 1.0000000000000000e-03
ITEM: ATOMS id id mass q x y z
1 1 2.83952e-25 1.60218e-19 1.85242e-07 1.22836e-07 -2.04855e-05
2 2 2.83952e-25 1.60218e-19 1.87321e-07 -1.26577e-07 -8.95439e-06
3 3 2.83952e-25 1.60218e-19 -8.70832e-08 1.15313e-07 9.0136e-07
4 4 2.83952e-25 1.60218e-19 -1.39447e-07 -9.39116e-08 1.04052e-05
5 5 2.29154e-25 1.60218e-19 -8.64776e-08 3.02334e-08 2.00968e-05
ITEM: TIMESTEP
1000
ITEM: NUMBER OF ATOMS
5
ITEM: BOX BOUNDS mm mm mm
-1.0000000000000000e-03 1.0000000000000000e-03
-1.0000000000000000e-03 1.0000000000000000e-03
-1.0000000000000000e-03 1.0000000000000000e-03
ITEM: ATOMS id id mass q x y z
1 1 2.83952e-25 1.60218e-19 -9.66019e-08 -3.06978e-08 -1.8203e-05
2 2 2.83952e-25 1.60218e-19 -4.01867e-08 -1.68996e-08 -8.34229e-06
3 3 2.83952e-25 1.60218e-19 -4.72456e-09 2.96707e-08 5.07243e-07
4 4 2.83952e-25 1.60218e-19 3.84325e-08 -4.32642e-09 9.21058e-06
5 5 2.29154e-25 1.60218e-19 1.91288e-07 -6.48098e-08 1.78649e-05
ITEM: TIMESTEP
1100
ITEM: NUMBER OF ATOMS
5
ITEM: BOX BOUNDS mm mm mm
-1.0000000000000000e-03 1.0000000000000000e-03
-1.0000000000000000e-03 1.0000000000000000e-03
-1.0000000000000000e-03 1.0000000000000000e-03
ITEM: ATOMS id id mass q x y z
1 1 2.83952e-25 1.60218e-19 -1.23504e-07 -9.52202e-08 -1.53037e-05
2 2 2.83952e-25 1.60218e-19 -1.47325e-07 1.16722e-07 -7.40291e-06
3 3 2.83952e-25 1.60218e-19 7.78037e-08 -1.10568e-07 -3.30502e-08
4 4 2.83952e-25 1.60218e-19 1.06509e-07 8.35119e-08 7.30885e-06
5 5 2.29154e-25 1.60218e-19 -2.26218e-07 7.54067e-08 1.53919e-05
ITEM: TIMESTEP
1200
ITEM: NUMBER OF ATOMS
5
ITEM: BOX BOUNDS mm mm mm
-1.0000000000000000e-03 1.0000000000000000e-03
-1.0000000000000000e-03 1.0000000000000000e-03
-1.0000000000000000e-03 1.0000000000000000e-03
ITEM: ATOMS id id mass q x y z
1 1 2.83952e-25 1.60218e-19 1.33663e-07 5.79074e-08 -1.33783e-05
2 2 2.83952e-25 1.60218e-19 8.26196e-08 -1.51971e-08 -6.59472e-06
3 3 2.83952e-25 1.60218e-19 -1.74155e-08 -6.40842e-11 -4.81441e-07
4 4 2.83952e-25 1.60218e-19 -6.83705e-08 -1.97849e-08 5.81734e-06
5 5 2.29154e-25 1.60218e-19 1.89559e-07 -6.34881e-08 1.37693e-05
ITEM: TIMESTEP
1300
ITEM: NUMBER OF ATOMS
5
ITEM: BOX BOUNDS mm mm mm
-1.0000000000000000e-03 1.0000000000000000e-03
-1.0000000000000000e-03 1.0000000000000000e-03
-1.0000000000000000e-03 1.0000000000000000e-03
ITEM: ATOMS id id mass q x y z
1 1 2.83952e-25 1.60218e-19 5.73634e-08 6.37095e-08 -1.35889e-05
2 2 2.83952e-25 1.60218e-19 1.00641e-07 -1.00448e-07 -6.6074e-06
3 3 2.83952e-25 1.60218e-19 -6.5967e-08 9.87209e-08 -4.73368e-07
4 4 2.83952e-25 1.60218e-19 -7.3943e-08 -6.63091e-08 5.89157e-06
5 5 2.29154e-25 1.60218e-19 -1.02253e-07 3.51663e-08 1.35603e-05
ITEM: TIMESTEP
1400
ITEM: NUMBER OF ATOMS
5
ITEM: BOX BOUNDS mm mm mm
-1.0000000000000000e-03 1.0000000000000000e-03
-1.0000000000000000e-03 1.0000000000000000e-03
-1.0000000000000000e-03 1.0000000000000000e-03
ITEM: ATOMS id id mass q x y z
1 1 2.83952e-25 1.60218e-19 -1.40032e-07 -6.8247e-08 -1.54666e-05
2 2 2.83952e-25 1.60218e-19 -9.75368e-08 3.22622e-08 -7.42112e-06
3 3 2.83952e-25 1.60218e-19 2.99541e-08 -1.56859e-08 -9.34249e-08
4 4 2.83952e-25 1.60218e-19 8.53901e-08 3.11528e-08 7.11773e-06
5 5 2.29154e-25 1.60218e-19 -1.87663e-09 2.43838e-10 1.48138e-05
ITEM: TIMESTEP
1500
ITEM: NUMBER OF ATOMS
5
ITEM: BOX BOUNDS mm mm mm
-1.0000000000000000e-03 1.0000000000000000e-03
-1.0000000000000000e-03 1.0000000000000000e-03
-1.0000000000000000e-03 1.0000000000000000e-03
ITEM: ATOMS id id mass q x y z
1 1 2.83952e-25 1.60218e-19 4.112e-09 -3.11891e-08 -1.75767e-05
2 2 2.83952e-25 1.60218e-19 -5.29548e-08 7.89048e-08 -8.25376e-06
3 3 2.83952e-25 1.60218e-19 4.87667e-08 -8.26327e-08 1.6852e-07
4 4 2.83952e-25 1.60218e-19 3.59744e-08 4.81509e-08 8.27293e-06
5 5 2.29154e-25 1.60218e-19 9.15158e-08 -3.14295e-08 1.68344e-05
ITEM: TIMESTEP
1600
ITEM: NUMBER OF ATOMS
5
ITEM: BOX BOUNDS mm mm mm
-1.0000000000000000e-03 1.0000000000000000e-03
-1.0000000000000000e-03 1.0000000000000000e-03
-1.0000000000000000e-03 1.0000000000000000e-03
ITEM: ATOMS id id mass q x y z
1 1 2.83952e-25 1.60218e-19 1.21014e-07 6.95128e-08 -1.8806e-05
2 2 2.83952e-25 1.60218e-19 1.01464e-07 -5.25042e-08 -8.67704e-06
3 3 2.83952e-25 1.60218e-19 -4.19492e-08 3.75756e-08 1.7816e-07
4 4 2.83952e-25 1.60218e-19 -8.7773e-08 -4.09293e-08 8.83574e-06
5 5 2.29154e-25 1.60218e-19 -1.43967e-07 4.89916e-08 1.83993e-05
ITEM: TIMESTEP
1700
ITEM: NUMBER OF ATOMS
5
ITEM: BOX BOUNDS mm mm mm
-1.0000000000000000e-03 1.0000000000000000e-03
-1.0000000000000000e-03 1.0000000000000000e-03
-1.0000000000000000e-03 1.0000000000000000e-03
ITEM: ATOMS id id mass q x y z
1 1 2.83952e-25 1.60218e-19 -5.15424e-08 1.16608e-09 -1.87387e-05
2 2 2.83952e-25 1.60218e-19 8.84242e-09 -5.15887e-08 -8.63637e-06
3 3 2.83952e-25 1.60218e-19 -2.81329e-08 6.07775e-08 5.16423e-08
4 4 2.83952e-25 1.60218e-19 1.22593e-09 -2.83454e-08 8.79941e-06
5 5 2.29154e-25 1.60218e-19 1.47503e-07 -4.94985e-08 1.86824e-05
ITEM: TIMESTEP
1800
ITEM: NUMBER OF ATOMS
5
ITEM: BOX BOUNDS mm mm mm
-1.0000000000000000e-03 1.0000000000000000e-03
-1.0000000000000000e-03 1.0000000000000000e-03
-1.0000000000000000e-03 1.0000000000000000e-03
ITEM: ATOMS id id mass q x y z
1 1 2.83952e-25 1.60218e-19 -8.54914e-08 -6.01943e-08 -1.7571e-05
2 2 2.83952e-25 1.60218e-19 -8.99136e-08 6.27584e-08 -8.25134e-06
3 3 2.83952e-25 1.60218e-19 4.61191e-08 -5.18682e-08 -5.34697e-08
4 4 2.83952e-25 1.60218e-19 7.58805e-08 4.46159e-08 8.30872e-06
5 5 2.29154e-25 1.60218e-19 -1.06531e-07 3.5303e-08 1.7656e-05
ITEM: TIMESTEP
1900
ITEM: NUMBER OF ATOMS
5
ITEM: BOX BOUNDS mm mm mm
-1.0000000000000000e-03 1.0000000000000000e-03
-1.0000000000000000e-03 1.0000000000000000e-03
-1.0000000000000000e-03 1.0000000000000000e-03
ITEM: ATOMS id id mass q x y z
1 1 2.83952e-25 1.60218e-19 7.89475e-08 2.05879e-08 -1.59558e-05
2 2 2.83952e-25 1.60218e-19 2.37508e-08 2.57104e-08 -7.68206e-06
3 3 2.83952e-25 1.60218e-19 9.67172e-09 -3.83847e-08 -6.24422e-08
4 4 2.83952e-25 1.60218e-19 -2.81806e-08 1.02711e-08 7.58172e-06
5 5 2.29154e-25 1.60218e-19 3.8945e-08 -1.29161e-08 1.59844e-05
ITEM: TIMESTEP
2000
ITEM: NUMBER OF ATOMS
5
ITEM: BOX BOUNDS mm mm mm
-1.0000000000000000e-03 1.0000000000000000e-03
-1.0000000000000000e-03 1.0000000000000000e-03
-1.0000000000000000e-03 1.0000000000000000e-03
ITEM: ATOMS id id mass q x y z
1 1 2.83952e-25 1.60218e-19 4.4451e-08 4.42648e-08 -1.47535e-05
2 2 2.83952e-25 1.60218e-19 6.79704e-08 -6.25861e-08 -7.09129e-06
3 3 2.83952e-25 1.60218e-19 -4.34742e-08 5.6279e-08 -4.12736e-08
4 4 2.83952e-25 1.60218e-19 -5.71986e-08 -4.11427e-08 6.9182e-06
5 5 2.29154e-25 1.60218e-19 3.11925e-08 -1.01117e-08 1.46924e-05
ITEM: TIMESTEP
2100
ITEM: NUMBER OF ATOMS
5
ITEM: BOX BOUNDS mm mm mm
-1.0000000000000000e-03 1.0000000000000000e-03
-1.0000000000000000e-03 1.0000000000000000e-03
-1.0000000000000000e-03 1.0000000000000000e-03
ITEM: ATOMS id id mass q x y z
1 1 2.83952e-25 1.60218e-19 -8.68558e-08 -3.19732e-08 -1.45381e-05
2 2 2.83952e-25 1.60218e-19 -4.13573e-08 -6.57224e-09 -6.79523e-06
3 3 2.83952e-25 1.60218e-19 3.91207e-09 2.1241e-08 -6.4076e-08
4 4 2.83952e-25 1.60218e-19 4.37395e-08 1.81692e-09 6.70277e-06
5 5 2.29154e-25 1.60218e-19 -8.2232e-08 2.7584e-08 1.45227e-05
ITEM: TIMESTEP
2200
ITEM: NUMBER OF ATOMS
5
ITEM: BOX BOUNDS mm mm mm
-1.0000000000000000e-03 1.0000000000000000e-03
-1.0000000000000000e-03 1.0000000000000000e-03
-1.0000000000000000e-03 1.0000000000000000e-03
ITEM: ATOMS id id mass q x y z
1 1 2.83952e-25 1.60218e-19 -5.83134e-09 -2.67395e-08 -1.52206e-05
2 2 2.83952e-25 1.60218e-19 -4.36602e-08 5.63927e-08 -7.09864e-06
3 3 2.83952e-25 1.60218e-19 3.70942e-08 -5.4713e-08 -3.92527e-08
4 4 2.83952e-25 1.60218e-19 3.703e-08 3.38989e-08 7.11762e-06
5 5 2.29154e-25 1.60218e-19 1.02537e-07 -3.48566e-08 1.53775e-05
ITEM: TIMESTEP
2300
ITEM: NUMBER OF ATOMS
5
ITEM: BOX BOUNDS mm mm mm
-1.0000000000000000e-03 1.0000000000000000e-03
-1.0000000000000000e-03 1.0000000000000000e-03
-1.0000000000000000e-03 1.0000000000000000e-03
ITEM: ATOMS id id mass q x y z
1 1 2.83952e-25 1.60218e-19 7.86872e-08 3.60531e-08 -1.62909e-05
2 2 2.83952e-25 1.60218e-19 4.81086e-08 -9.21052e-09 -7.73323e-06
3 3 2.83952e-25 1.60218e-19 -1.43898e-08 -5.69685e-09 6.45495e-08
4 4 2.83952e-25 1.60218e-19 -5.21649e-08 -1.00756e-08 7.85362e-06
5 5 2.29154e-25 1.60218e-19 -9.09217e-08 3.07042e-08 1.65749e-05
ITEM: TIMESTEP
2400
ITEM: NUMBER OF ATOMS
5
ITEM: BOX BOUNDS mm mm mm
-1.0000000000000000e-03 1.0000000000000000e-03
-1.0000000000000000e-03 1.0000000000000000e-03
-1.0000000000000000e-03 1.0000000000000000e-03
ITEM: ATOMS id id mass q x y z
1 1 2.83952e-25 1.60218e-19 -2.53739e-08 1.00325e-08 -1.71958e-05
2 2 2.83952e-25 1.60218e-19 2.03232e-08 -4.64378e-08 -8.17219e-06
3 3 2.83952e-25 1.60218e-19 -2.75146e-08 4.96968e-08 1.53027e-07
4 4 2.83952e-25 1.60218e-19 -1.35763e-08 -2.60016e-08 8.42369e-06
5 5 2.29154e-25 1.60218e-19 5.44845e-08 -1.79748e-08 1.74384e-05
ITEM: TIMESTEP
2500
ITEM: NUMBER OF ATOMS
5
ITEM: BOX BOUNDS mm mm mm
-1.0000000000000000e-03 1.0000000000000000e-03
-1.0000000000000000e-03 1.0000000000000000e-03
-1.0000000000000000e-03 1.0000000000000000e-03
ITEM: ATOMS id id mass q x y z
1 1 2.83952e-25 1.60218e-19 -5.91682e-08 -3.41802e-08 -1.75427e-05
2 2 2.83952e-25 1.60218e-19 -4.74534e-08 2.2552e-08 -8.19817e-06
3 3 2.83952e-25 1.60218e-19 2.16466e-08 -9.7668e-09 1.79465e-07
4 4 2.83952e-25 1.60218e-19 5.03805e-08 1.65964e-08 8.53862e-06
5 5 2.29154e-25 1.60218e-19 -6.48277e-09 1.77139e-09 1.76085e-05
ITEM: TIMESTEP
2600
ITEM: NUMBER OF ATOMS
5
ITEM: BOX BOUNDS mm mm mm
-1.0000000000000000e-03 1.0000000000000000e-03
-1.0000000000000000e-03 1.0000000000000000e-03
-1.0000000000000000e-03 1.0000000000000000e-03
ITEM: ATOMS id id mass q x y z
1 1 2.83952e-25 1.60218e-19 4.53685e-08 3.81509e-09 -1.72163e-05
2 2 2.83952e-25 1.60218e-19 -5.93497e-10 3.33787e-08 -7.92507e-06
3 3 2.83952e-25 1.60218e-19 1.6622e-08 -4.09139e-08 1.48923e-07
4 4 2.83952e-25 1.60218e-19 -6.15709e-09 1.70494e-08 8.20318e-06
5 5 2.29154e-25 1.60218e-19 -3.75682e-08 1.26945e-08 1.7101e-05
ITEM: TIMESTEP
2700
ITEM: NUMBER OF ATOMS
5
ITEM: BOX BOUNDS mm mm mm
-1.0000000000000000e-03 1.0000000000000000e-03
-1.0000000000000000e-03 1.0000000000000000e-03
-1.0000000000000000e-03 1.0000000000000000e-03
ITEM: ATOMS id id mass q x y z
1 1 2.83952e-25 1.60218e-19 3.42217e-08 2.76977e-08 -1.64122e-05
2 2 2.83952e-25 1.60218e-19 4.00787e-08 -3.00984e-08 -7.60031e-06
3 3 2.83952e-25 1.60218e-19 -2.42915e-08 2.06108e-08 6.37381e-08
4 4 2.83952e-25 1.60218e-19 -4.19643e-08 -1.92642e-08 7.65554e-06
5 5 2.29154e-25 1.60218e-19 6.47686e-08 -2.16043e-08 1.62351e-05
ITEM: TIMESTEP
2800
ITEM: NUMBER OF ATOMS
5
ITEM: BOX BOUNDS mm mm mm
-1.0000000000000000e-03 1.0000000000000000e-03
-1.0000000000000000e-03 1.0000000000000000e-03
-1.0000000000000000e-03 1.0000000000000000e-03
ITEM: ATOMS id id mass q x y z
1 1 2.83952e-25 1.60218e-19 -5.31481e-08 -1.3006e-08 -1.55757e-05
2 2 2.83952e-25 1.60218e-19 -1.27761e-08 -2.02344e-08 -7.40712e-06
3 3 2.83952e-25 1.60218e-19 -6.71111e-09 3.07351e-08 -7.66401e-08
4 4 2.83952e-25 1.60218e-19 1.95784e-08 -8.8803e-09 7.21133e-06
5 5 2.29154e-25 1.60218e-19 -6.8939e-08 2.31745e-08 1.54769e-05
ITEM: TIMESTEP
2900
ITEM: NUMBER OF ATOMS
5
ITEM: BOX BOUNDS mm mm mm
-1.0000000000000000e-03 1.0000000000000000e-03
-1.0000000000000000e-03 1.0000000000000000e-03
-1.0000000000000000e-03 1.0000000000000000e-03
ITEM: ATOMS id id mass q x y z
1 1 2.83952e-25 1.60218e-19 -9.77022e-09 -1.88503e-08 -1.52043e-05
2 2 2.83952e-25 1.60218e-19 -2.89297e-08 3.20043e-08 -7.36869e-06
3 3 2.83952e-25 1.60218e-19 2.32673e-08 -2.63409e-08 -2.01758e-07
4 4 2.83952e-25 1.60218e-19 3.11278e-08 1.83042e-08 7.05581e-06
5 5 2.29154e-25 1.60218e-19 5.22346e-08 -1.77305e-08 1.52111e-05
ITEM: TIMESTEP
3000
ITEM: NUMBER OF ATOMS
5
ITEM: BOX BOUNDS mm mm mm
-1.0000000000000000e-03 1.0000000000000000e-03
-1.0000000000000000e-03 1.0000000000000000e-03
-1.0000000000000000e-03 1.0000000000000000e-03
ITEM: ATOMS id id mass q x y z
1 1 2.83952e-25 1.60218e-19 5.05586e-08 1.72283e-08 -1.54993e-05
2 2 2.83952e-25 1.60218e-19 1.9502e-08 9.01117e-09 -7.44665e-06
3 3 2.83952e-25 1.60218e-19 -1.432e-09 -2.0657e-08 -1.91838e-07
4 4 2.83952e-25 1.60218e-19 -2.84637e-08 2.91182e-09 7.18429e-06
5 5 2.29154e-25 1.60218e-19 -2.28745e-08 7.65517e-09 1.55111e-05
ITEM: TIMESTEP
3100
ITEM: NUMBER OF ATOMS
5
ITEM: BOX BOUNDS mm mm mm
-1.0000000000000000e-03 1.0000000000000000e-03
-1.0000000000000000e-03 1.0000000000000000e-03
-1.0000000000000000e-03 1.0000000000000000e-03
ITEM: ATOMS id id mass q x y z
1 1 2.83952e-25 1.60218e-19 -1.06062e-08 9.84034e-09 -1.61893e-05
2 2 2.83952e-25 1.60218e-19 1.74296e-08 -3.03611e-08 -7.62723e-06
3 3 2.83952e-25 1.60218e-19 -1.96095e-08 2.87197e-08 -5.46822e-08
4 4 2.83952e-25 1.60218e-19 -1.7534e-08 -1.61611e-08 7.51017e-06
5 5 2.29154e-25 1.60218e-19 -9.12505e-09 3.3354e-09 1.61128e-05
ITEM: TIMESTEP
3200
ITEM: NUMBER OF ATOMS
5
ITEM: BOX BOUNDS mm mm mm
-1.0000000000000000e-03 1.0000000000000000e-03
-1.0000000000000000e-03 1.0000000000000000e-03
-1.0000000000000000e-03 1.0000000000000000e-03
ITEM: ATOMS id id mass q x y z
1 1 2.83952e-25 1.60218e-19 -4.03349e-08 -1.79161e-08 -1.68089e-05
2 2 2.83952e-25 1.60218e-19 -2.16668e-08 1.04604e-09 -7.83865e-06
3 3 2.83952e-25 1.60218e-19 7.56891e-09 1.04353e-08 7.41114e-08
4 4 2.83952e-25 1.60218e-19 3.12787e-08 1.91612e-09 7.88736e-06
5 5 2.29154e-25 1.60218e-19 3.45388e-08 -1.17931e-08 1.665e-05
ITEM: TIMESTEP
3300
ITEM: NUMBER OF ATOMS
5
ITEM: BOX BOUNDS mm mm mm
-1.0000000000000000e-03 1.0000000000000000e-03
-1.0000000000000000e-03 1.0000000000000000e-03
-1.0000000000000000e-03 1.0000000000000000e-03
ITEM: ATOMS id id mass q x y z
1 1 2.83952e-25 1.60218e-19 2.4825e-08 -1.86159e-09 -1.70418e-05
2 2 2.83952e-25 1.60218e-19 -7.16888e-09 2.60517e-08 -7.95959e-06
3 3 2.83952e-25 1.60218e-19 1.42897e-08 -2.83833e-08 1.10026e-07
4 4 2.83952e-25 1.60218e-19 4.2341e-09 1.31159e-08 8.11447e-06
5 5 2.29154e-25 1.60218e-19 -4.67639e-08 1.56528e-08 1.68876e-05
ITEM: TIMESTEP
3400
ITEM: NUMBER OF ATOMS
5
ITEM: BOX BOUNDS mm mm mm
-1.0000000000000000e-03 1.0000000000000000e-03
-1.0000000000000000e-03 1.0000000000000000e-03
-1.0000000000000000e-03 1.0000000000000000e-03
ITEM: ATOMS id id mass q x y z
1 1 2.83952e-25 1.60218e-19 2.58031e-08 1.57773e-08 -1.68347e-05
2 2 2.83952e-25 1.60218e-19 2.03039e-08 -9.03016e-09 -7.91592e-06
3 3 2.83952e-25 1.60218e-19 -1.12956e-08 -8.56923e-10 7.20056e-08
4 4 2.83952e-25 1.60218e-19 -2.87473e-08 -5.45804e-09 8.05684e-06
5 5 2.29154e-25 1.60218e-19 4.35598e-08 -1.4494e-08 1.67827e-05
ITEM: TIMESTEP
3500
ITEM: NUMBER OF ATOMS
5
ITEM: BOX BOUNDS mm mm mm
-1.0000000000000000e-03 1.0000000000000000e-03
-1.0000000000000000e-03 1.0000000000000000e-03
-1.0000000000000000e-03 1.0000000000000000e-03
ITEM: ATOMS id id mass q x y z
1 1 2.83952e-25 1.60218e-19 -3.17055e-08 -4.09326e-09 -1.63545e-05
2 2 2.83952e-25 1.60218e-19 -8.60063e-10 -1.98771e-08 -7.72932e-06
3 3 2.83952e-25 1.60218e-19 -8.52192e-09 2.54142e-08 1.31642e-08
4 4 2.83952e-25 1.60218e-19 6.08703e-09 -9.38766e-09 7.7668e-06
5 5 2.29154e-25 1.60218e-19 -2.76834e-08 9.27549e-09 1.64329e-05
ITEM: TIMESTEP
3600
ITEM: NUMBER OF ATOMS
5
ITEM: BOX BOUNDS mm mm mm
-1.0000000000000000e-03 1.0000000000000000e-03
-1.0000000000000000e-03 1.0000000000000000e-03
-1.0000000000000000e-03 1.0000000000000000e-03
ITEM: ATOMS id id mass q x y z
1 1 2.83952e-25 1.60218e-19 -1.05399e-08 -1.17735e-08 -1.58744e-05
2 2 2.83952e-25 1.60218e-19 -1.62882e-08 1.38248e-08 -7.5078e-06
3 3 2.83952e-25 1.60218e-19 1.25651e-08 -6.51374e-09 -3.13738e-08
4 4 2.83952e-25 1.60218e-19 2.34897e-08 7.0495e-09 7.45951e-06
5 5 2.29154e-25 1.60218e-19 5.71015e-09 -1.95205e-09 1.6012e-05
ITEM: TIMESTEP
3700
ITEM: NUMBER OF ATOMS
5
ITEM: BOX BOUNDS mm mm mm
-1.0000000000000000e-03 1.0000000000000000e-03
-1.0000000000000000e-03 1.0000000000000000e-03
-1.0000000000000000e-03 1.0000000000000000e-03
ITEM: ATOMS id id mass q x y z
1 1 2.83952e-25 1.60218e-19 3.18503e-08 7.55691e-09 -1.56322e-05
2 2 2.83952e-25 1.60218e-19 5.83221e-09 1.32615e-08 -7.38528e-06
3 3 2.83952e-25 1.60218e-19 3.17555e-09 -2.08113e-08 -4.22234e-08
4 4 2.83952e-25 1.60218e-19 -1.35503e-08 6.03346e-09 7.33727e-06
5 5 2.29154e-25 1.60218e-19 1.47966e-08 -5.04554e-09 1.57239e-05
ITEM: TIMESTEP
3800
ITEM: NUMBER OF ATOMS
5
ITEM: BOX BOUNDS mm mm mm
-1.0000000000000000e-03 1.0000000000000000e-03
-1.0000000000000000e-03 1.0000000000000000e-03
-1.0000000000000000e-03 1.0000000000000000e-03
ITEM: ATOMS id id mass q x y z
1 1 2.83952e-25 1.60218e-19 -2.7701e-09 7.14073e-09 -1.57167e-05
2 2 2.83952e-25 1.60218e-19 1.12585e-08 -1.57675e-08 -7.4227e-06
3 3 2.83952e-25 1.60218e-19 -1.17658e-08 1.14023e-08 -1.15959e-08
4 4 2.83952e-25 1.60218e-19 -1.62981e-08 -7.30501e-09 7.42353e-06
5 5 2.29154e-25 1.60218e-19 -2.81337e-08 9.60715e-09 1.5728e-05
ITEM: TIMESTEP
3900
ITEM: NUMBER OF ATOMS
5
ITEM: BOX BOUNDS mm mm mm
-1.0000000000000000e-03 1.0000000000000000e-03
-1.0000000000000000e-03 1.0000000000000000e-03
-1.0000000000000000e-03 1.0000000000000000e-03
ITEM: ATOMS id id mass q x y z
1 1 2.83952e-25 1.60218e-19 -2.69022e-08 -8.79957e-09 -1.60385e-05
2 2 2.83952e-25 1.60218e-19 -8.1429e-09 -6.94886e-09 -7.56397e-06
3 3 2.83952e-25 1.60218e-19 1.20026e-09 1.53514e-08 3.23178e-08
4 4 2.83952e-25 1.60218e-19 1.78185e-08 -3.30014e-09 7.60182e-06
5 5 2.29154e-25 1.60218e-19 3.17005e-08 -1.06989e-08 1.60234e-05
ITEM: TIMESTEP
4000
ITEM: NUMBER OF ATOMS
5
ITEM: BOX BOUNDS mm mm mm
-1.0000000000000000e-03 1.0000000000000000e-03
-1.0000000000000000e-03 1.0000000000000000e-03
-1.0000000000000000e-03 1.0000000000000000e-03
ITEM: ATOMS id id mass q x y z
1 1 2.83952e-25 1.60218e-19 1.25954e-08 -2.79633e-09 -1.63998e-05
2 2 2.83952e-25 1.60218e-19 -6.46817e-09 1.56887e-08 -7.70964e-06
3 3 2.83952e-25 1.60218e-19 9.53657e-09 -1.43931e-08 4.68167e-08
4 4 2.83952e-25 1.60218e-19 7.97817e-09 6.99529e-09 7.76628e-06
5 5 2.29154e-25 1.60218e-19 -2.56934e-08 8.53985e-09 1.64155e-05
ITEM: TIMESTEP
4100
ITEM: NUMBER OF ATOMS
5
ITEM: BOX BOUNDS mm mm mm
-1.0000000000000000e-03 1.0000000000000000e-03
-1.0000000000000000e-03 1.0000000000000000e-03
-1.0000000000000000e-03 1.0000000000000000e-03
ITEM: ATOMS id id mass q x y z
1 1 2.83952e-25 1.60218e-19 1.87903e-08 8.34293e-09 -1.66133e-05
2 2 2.83952e-25 1.60218e-19 8.58813e-09 1.27421e-09 -7.79831e-06
3 3 2.83952e-25 1.60218e-19 -4.22635e-09 -9.44819e-09 2.91711e-08
4 4 2.83952e-25 1.60218e-19 -1.82876e-08 8.82672e-10 7.86299e-06
5 5 2.29154e-25 1.60218e-19 1.28099e-08 -4.20592e-09 1.66556e-05
ITEM: TIMESTEP
4200
ITEM: NUMBER OF ATOMS
5
ITEM: BOX BOUNDS mm mm mm
-1.0000000000000000e-03 1.0000000000000000e-03
-1.0000000000000000e-03 1.0000000000000000e-03
-1.0000000000000000e-03 1.0000000000000000e-03
ITEM: ATOMS id id mass q x y z
1 1 2.83952e-25 1.60218e-19 -1.817e-08 -6.98273e-10 -1.65967e-05
2 2 2.83952e-25 1.60218e-19 2.46096e-09 -1.39469e-08 -7.8111e-06
3 3 2.83952e-25 1.60218e-19 -6.64594e-09 1.55121e-08 1.04344e-08
4 4 2.83952e-25 1.60218e-19 -7.21536e-10 -6.03589e-09 7.85976e-06
5 5 2.29154e-25 1.60218e-19 2.33514e-09 -8.01127e-10 1.66199e-05
ITEM: TIMESTEP
4300
ITEM: NUMBER OF ATOMS
5
ITEM: BOX BOUNDS mm mm mm
-1.0000000000000000e-03 1.0000000000000000e-03
-1.0000000000000000e-03 1.0000000000000000e-03
-1.0000000000000000e-03 1.0000000000000000e-03
ITEM: ATOMS id id mass q x y z
1 1 2.83952e-25 1.60218e-19 -9.55705e-09 -6.70128e-09 -1.6396e-05
2 2 2.83952e-25 1.60218e-19 -7.63271e-09 3.14926e-09 -7.74827e-06
3 3 2.83952e-25 1.60218e-19 5.85912e-09 3.80414e-09 4.63352e-09
4 4 2.83952e-25 1.60218e-19 1.63557e-08 8.2495e-10 7.75199e-06
5 5 2.29154e-25 1.60218e-19 -1.47917e-08 4.95738e-09 1.63675e-05
ITEM: TIMESTEP
4400
ITEM: NUMBER OF ATOMS
5
ITEM: BOX BOUNDS mm mm mm
-1.0000000000000000e-03 1.0000000000000000e-03
-1.0000000000000000e-03 1.0000000000000000e-03
-1.0000000000000000e-03 1.0000000000000000e-03
ITEM: ATOMS id id mass q x y z
1 1 2.83952e-25 1.60218e-19 1.95257e-08 3.0151e-09 -1.61403e-05
2 2 2.83952e-25 1.60218e-19 4.06783e-10 1.10953e-08 -7.63438e-06
3 3 2.83952e-25 1.60218e-19 3.61009e-09 -1.48578e-08 -6.61799e-09
4 4 2.83952e-25 1.60218e-19 -4.93695e-09 4.79088e-09 7.58849e-06
5 5 2.29154e-25 1.60218e-19 2.11011e-08 -7.12485e-09 1.60726e-05
ITEM: TIMESTEP
4500
ITEM: NUMBER OF ATOMS
5
ITEM: BOX BOUNDS mm mm mm
-1.0000000000000000e-03 1.0000000000000000e-03
-1.0000000000000000e-03 1.0000000000000000e-03
-1.0000000000000000e-03 1.0000000000000000e-03
ITEM: ATOMS id id mass q x y z
1 1 2.83952e-25 1.60218e-19 1.01649e-09 4.46258e-09 -1.59628e-05
2 2 2.83952e-25 1.60218e-19 5.86811e-09 -6.00741e-09 -7.53545e-06
3 3 2.83952e-25 1.60218e-19 -6.18606e-09 8.89499e-10 -3.47144e-08
4 4 2.83952e-25 1.60218e-19 -1.29088e-08 -1.7589e-09 7.46161e-06
5 5 2.29154e-25 1.60218e-19 -2.0352e-08 6.88618e-09 1.58996e-05
ITEM: TIMESTEP
4600
ITEM: NUMBER OF ATOMS
5
ITEM: BOX BOUNDS mm mm mm
-1.0000000000000000e-03 1.0000000000000000e-03
-1.0000000000000000e-03 1.0000000000000000e-03
-1.0000000000000000e-03 1.0000000000000000e-03
ITEM: ATOMS id id mass q x y z
1 1 2.83952e-25 1.60218e-19 -1.74681e-08 -4.11696e-09 -1.59369e-05
2 2 2.83952e-25 1.60218e-19 -2.02443e-09 -7.80176e-09 -7.52461e-06
3 3 2.83952e-25 1.60218e-19 -8.74751e-10 1.29128e-08 -5.48128e-08
4 4 2.83952e-25 1.60218e-19 8.96629e-09 -3.65116e-09 7.44616e-06
5 5 2.29154e-25 1.60218e-19 1.38834e-08 -4.64458e-09 1.5913e-05
ITEM: TIMESTEP
4700
ITEM: NUMBER OF ATOMS
5
ITEM: BOX BOUNDS mm mm mm
-1.0000000000000000e-03 1.0000000000000000e-03
-1.0000000000000000e-03 1.0000000000000000e-03
-1.0000000000000000e-03 1.0000000000000000e-03
ITEM: ATOMS id id mass q x y z
1 1 2.83952e-25 1.60218e-19 5.64589e-09 -2.18326e-09 -1.60575e-05
2 2 2.83952e-25 1.60218e-19 -3.96285e-09 7.4373e-09 -7.60401e-06
3 3 2.83952e-25 1.60218e-19 5.44173e-09 -4.41887e-09 -4.12315e-08
4 4 2.83952e-25 1.60218e-19 8.18369e-09 2.32492e-09 7.54183e-06
5 5 2.29154e-25 1.60218e-19 -4.27785e-09 1.36007e-09 1.60697e-05
ITEM: TIMESTEP
4800
ITEM: NUMBER OF ATOMS
5
ITEM: BOX BOUNDS mm mm mm
-1.0000000000000000e-03 1.0000000000000000e-03
-1.0000000000000000e-03 1.0000000000000000e-03
-1.0000000000000000e-03 1.0000000000000000e-03
ITEM: ATOMS id id mass q x y z
1 1 2.83952e-25 1.60218e-19 1.31598e-08 4.20348e-09 -1.62523e-05
2 2 2.83952e-25 1.60218e-19 2.68795e-09 4.51053e-09 -7.69739e-06
3 3 2.83952e-25 1.60218e-19 -1.16166e-09 -1.01598e-08 -5.67944e-09
4 4 2.83952e-25 1.60218e-19 -1.06812e-08 2.51536e-09 7.67926e-06
5 5 2.29154e-25 1.60218e-19 -5.42217e-09 1.87527e-09 1.62692e-05
ITEM: TIMESTEP
4900
ITEM: NUMBER OF ATOMS
5
ITEM: BOX BOUNDS mm mm mm
-1.0000000000000000e-03 1.0000000000000000e-03
-1.0000000000000000e-03 1.0000000000000000e-03
-1.0000000000000000e-03 1.0000000000000000e-03
ITEM: ATOMS id id mass q x y z
1 1 2.83952e-25 1.60218e-19 -9.86454e-09 2.46626e-10 -1.64146e-05
2 2 2.83952e-25 1.60218e-19 2.28426e-09 -7.73144e-09 -7.73659e-06
3 3 2.83952e-25 1.60218e-19 -4.10684e-09 6.8608e-09 2.5106e-08
4 4 2.83952e-25 1.60218e-19 -3.46307e-09 -2.5368e-09 7.77606e-06
5 5 2.29154e-25 1.60218e-19 1.23689e-08 -4.15343e-09 1.64117e-05
ITEM: TIMESTEP
5000
ITEM: NUMBER OF ATOMS
5
ITEM: BOX BOUNDS mm mm mm
-1.0000000000000000e-03 1.0000000000000000e-03
-1.0000000000000000e-03 1.0000000000000000e-03
-1.0000000000000000e-03 1.0000000000000000e-03
ITEM: ATOMS id id mass q x y z
1 1 2.83952e-25 1.60218e-19 -7.78871e-09 -3.57318e-09 -1.64565e-05
2 2 2.83952e-25 1.60218e-19 -2.70713e-09 -1.53871e-09 -7.71805e-06
3 3 2.83952e-25 1.60218e-19 2.41587e-09 6.95539e-09 3.90655e-08
4 4 2.83952e-25 1.60218e-19 1.05047e-08 -1.50583e-09 7.78966e-06
5 5 2.29154e-25 1.60218e-19 -1.47344e-08 4.93307e-09 1.64385e-05
ITEM: TIMESTEP
5100
ITEM: NUMBER OF ATOMS
5
ITEM: BOX BOUNDS mm mm mm
-1.0000000000000000e-03 1.0000000000000000e-03
-1.0000000000000000e-03 1.0000000000000000e-03
-1.0000000000000000e-03 1.0000000000000000e-03
ITEM: ATOMS id id mass q x y z
1 1 2.83952e-25 1.60218e-19 1.15392e-08 1.13776e-09 -1.63601e-05
2 2 2.83952e-25 1.60218e-19 -1.00184e-09 7.0909e-09 -7.67558e-06
3 3 2.83952e-25 1.60218e-19 2.54821e-09 -8.1207e-09 3.50409e-08
4 4 2.83952e-25 1.60218e-19 -4.92017e-10 2.4414e-09 7.73262e-06
5 5 2.29154e-25 1.60218e-19 1.23586e-08 -4.15411e-09 1.63516e-05
ITEM: TIMESTEP
5200
ITEM: NUMBER OF ATOMS
5
ITEM: BOX BOUNDS mm mm mm
-1.0000000000000000e-03 1.0000000000000000e-03
-1.0000000000000000e-03 1.0000000000000000e-03
-1.0000000000000000e-03 1.0000000000000000e-03
ITEM: ATOMS id id mass q x y z
1 1 2.83952e-25 1.60218e-19 2.47042e-09 2.53073e-09 -1.619e-05
2 2 2.83952e-25 1.60218e-19 2.31024e-09 -8.05238e-10 -7.63321e-06
3 3 2.83952e-25 1.60218e-19 -2.9291e-09 -3.74879e-09 1.41586e-08
4 4 2.83952e-25 1.60218e-19 -9.16361e-09 7.78736e-10 7.64943e-06