ITEM: TIMESTEP
0
ITEM: NUMBER OF ATOMS
5
ITEM: BOX BOUNDS mm mm mm
-1.0000000000000000e-03 1.0000000000000000e-03
-1.0000000000000000e-03 1.0000000000000000e-03
-1.0000000000000000e-03 1.0000000000000000e-03
ITEM: ATOMS id id mass q x y z
1 1 2.83952e-25 1.60218e-19 2.33883e-07 4.9774e-07 -2.5e-05
2 2 2.83952e-25 1.60218e-19 3.87676e-07 3.86965e-07 -1.25e-05
3 3 2.83952e-25 1.60218e-19 -8.08926e-08 -3.87281e-07 0
4 4 2.83952e-25 1.60218e-19 -4.03163e-07 -6.89264e-08 1.25e-05
5 5 2.83952e-25 1.60218e-19 3.38128e-07 -3.70403e-08 2.5e-05
ITEM: TIMESTEP
100
ITEM: NUMBER OF ATOMS
5
ITEM: BOX BOUNDS mm mm mm
-1.0000000000000000e-03 1.0000000000000000e-03
-1.0000000000000000e-03 1.0000000000000000e-03
-1.0000000000000000e-03 1.0000000000000000e-03
ITEM: ATOMS id id mass q x y z
1 1 2.83952e-25 1.60218e-19 -1.79846e-07 -3.84678e-07 -1.74216e-05
2 2 2.83952e-25 1.60218e-19 -3.02045e-07 -3.01626e-07 -8.4771e-06
3 3 2.83952e-25 1.60218e-19 6.34292e-08 3.04192e-07 -2.21814e-09
4 4 2.83952e-25 1.60218e-19 3.15941e-07 5.215e-08 8.48089e-06
5 5 2.83952e-25 1.60218e-19 -2.63989e-07 2.83135e-08 1.742e-05
ITEM: TIMESTEP
200
ITEM: NUMBER OF ATOMS
5
ITEM: BOX BOUNDS mm mm mm
-1.0000000000000000e-03 1.0000000000000000e-03
-1.0000000000000000e-03 1.0000000000000000e-03
-1.0000000000000000e-03 1.0000000000000000e-03
ITEM: ATOMS id id mass q x y z
1 1 2.83952e-25 1.60218e-19 7.06946e-08 2.04162e-07 -4.85667e-06
2 2 2.83952e-25 1.60218e-19 2.65158e-07 2.84889e-07 -2.29785e-06
3 3 2.83952e-25 1.60218e-19 -7.01892e-08 -3.68942e-07 -3.58647e-08
4 4 2.83952e-25 1.60218e-19 -3.13866e-07 1.84196e-08 2.35105e-06
5 5 2.83952e-25 1.60218e-19 2.09851e-07 -5.48716e-09 4.83932e-06
ITEM: TIMESTEP
300
ITEM: NUMBER OF ATOMS
5
ITEM: BOX BOUNDS mm mm mm
-1.0000000000000000e-03 1.0000000000000000e-03
-1.0000000000000000e-03 1.0000000000000000e-03
-1.0000000000000000e-03 1.0000000000000000e-03
ITEM: ATOMS id id mass q x y z
1 1 2.83952e-25 1.60218e-19 2.37343e-08 -7.17076e-08 -1.45934e-05
2 2 2.83952e-25 1.60218e-19 -1.86873e-07 -1.18183e-07 -6.6037e-06
3 3 2.83952e-25 1.60218e-19 8.30112e-08 2.65788e-07 -7.02733e-08
4 4 2.83952e-25 1.60218e-19 3.09398e-07 2.12867e-08 6.70291e-06
5 5 2.83952e-25 1.60218e-19 -1.68754e-07 -4.73778e-08 1.45644e-05
ITEM: TIMESTEP
400
ITEM: NUMBER OF ATOMS
5
ITEM: BOX BOUNDS mm mm mm
-1.0000000000000000e-03 1.0000000000000000e-03
-1.0000000000000000e-03 1.0000000000000000e-03
-1.0000000000000000e-03 1.0000000000000000e-03
ITEM: ATOMS id id mass q x y z
1 1 2.83952e-25 1.60218e-19 -1.38121e-07 -1.54384e-07 -2.07035e-05
2 2 2.83952e-25 1.60218e-19 7.98915e-08 6.23324e-08 -9.88162e-06
3 3 2.83952e-25 1.60218e-19 -4.35743e-08 -2.27345e-07 -3.62144e-08
4 4 2.83952e-25 1.60218e-19 -1.8685e-07 8.03596e-08 9.96752e-06
5 5 2.83952e-25 1.60218e-19 5.99744e-08 5.08271e-08 2.06538e-05
ITEM: TIMESTEP
500
ITEM: NUMBER OF ATOMS
5
ITEM: BOX BOUNDS mm mm mm
-1.0000000000000000e-03 1.0000000000000000e-03
-1.0000000000000000e-03 1.0000000000000000e-03
-1.0000000000000000e-03 1.0000000000000000e-03
ITEM: ATOMS id id mass q x y z
1 1 2.83952e-25 1.60218e-19 1.94846e-07 2.99438e-07 -1.47042e-05
2 2 2.83952e-25 1.60218e-19 2.95033e-08 -3.42399e-09 -7.20739e-06
3 3 2.83952e-25 1.60218e-19 -3.75998e-09 1.35842e-07 7.38646e-08
4 4 2.83952e-25 1.60218e-19 3.29707e-08 -1.46895e-07 7.12997e-06
5 5 2.83952e-25 1.60218e-19 4.59808e-08 -3.843e-08 1.47077e-05
ITEM: TIMESTEP
600
ITEM: NUMBER OF ATOMS
5
ITEM: BOX BOUNDS mm mm mm
-1.0000000000000000e-03 1.0000000000000000e-03
-1.0000000000000000e-03 1.0000000000000000e-03
-1.0000000000000000e-03 1.0000000000000000e-03
ITEM: ATOMS id id mass q x y z
1 1 2.83952e-25 1.60218e-19 -2.03715e-07 -3.3864e-07 -6.2959e-06
2 2 2.83952e-25 1.60218e-19 -5.07137e-08 1.19354e-08 -2.89016e-06
3 3 2.83952e-25 1.60218e-19 3.52887e-08 -1.0517e-07 -2.38129e-08
4 4 2.83952e-25 1.60218e-19 3.54172e-08 1.87712e-07 2.91738e-06
5 5 2.83952e-25 1.60218e-19 -8.29828e-08 2.4656e-08 6.29249e-06
ITEM: TIMESTEP
700
ITEM: NUMBER OF ATOMS
5
ITEM: BOX BOUNDS mm mm mm
-1.0000000000000000e-03 1.0000000000000000e-03
-1.0000000000000000e-03 1.0000000000000000e-03
-1.0000000000000000e-03 1.0000000000000000e-03
ITEM: ATOMS id id mass q x y z
1 1 2.83952e-25 1.60218e-19 1.77329e-07 2.98388e-07 -1.2753e-05
2 2 2.83952e-25 1.60218e-19 3.02919e-08 -3.53444e-08 -5.84799e-06
3 3 2.83952e-25 1.60218e-19 -6.522e-08 6.54418e-08 -5.32312e-08
4 4 2.83952e-25 1.60218e-19 -6.12816e-08 -1.89273e-07 5.92526e-06
5 5 2.83952e-25 1.60218e-19 7.56762e-08 -1.01659e-08 1.2729e-05
ITEM: TIMESTEP
800
ITEM: NUMBER OF ATOMS
5
ITEM: BOX BOUNDS mm mm mm
-1.0000000000000000e-03 1.0000000000000000e-03
-1.0000000000000000e-03 1.0000000000000000e-03
-1.0000000000000000e-03 1.0000000000000000e-03
ITEM: ATOMS id id mass q x y z
1 1 2.83952e-25 1.60218e-19 -8.85673e-08 -1.9823e-07 -1.77373e-05
2 2 2.83952e-25 1.60218e-19 -6.78517e-08 4.70949e-08 -8.24766e-06
3 3 2.83952e-25 1.60218e-19 8.95777e-08 -8.58342e-10 2.15019e-08
4 4 2.83952e-25 1.60218e-19 1.57933e-07 1.7413e-07 8.19783e-06
5 5 2.83952e-25 1.60218e-19 -1.07072e-07 -3.52884e-08 1.77657e-05
ITEM: TIMESTEP
900
ITEM: NUMBER OF ATOMS
5
ITEM: BOX BOUNDS mm mm mm
-1.0000000000000000e-03 1.0000000000000000e-03
-1.0000000000000000e-03 1.0000000000000000e-03
-1.0000000000000000e-03 1.0000000000000000e-03
ITEM: ATOMS id id mass q x y z
1 1 2.83952e-25 1.60218e-19 -1.21518e-08 5.85313e-08 -1.35846e-05
2 2 2.83952e-25 1.60218e-19 8.36637e-08 -4.75717e-08 -6.56997e-06
3 3 2.83952e-25 1.60218e-19 -8.61769e-08 -4.92091e-08 2.73801e-08
4 4 2.83952e-25 1.60218e-19 -1.98803e-07 -1.16803e-07 6.5201e-06
5 5 2.83952e-25 1.60218e-19 1.06094e-07 6.66814e-08 1.36071e-05
ITEM: TIMESTEP
1000
ITEM: NUMBER OF ATOMS
5
ITEM: BOX BOUNDS mm mm mm
-1.0000000000000000e-03 1.0000000000000000e-03
-1.0000000000000000e-03 1.0000000000000000e-03
-1.0000000000000000e-03 1.0000000000000000e-03
ITEM: ATOMS id id mass q x y z
1 1 2.83952e-25 1.60218e-19 8.3777e-08 5.38304e-08 -7.64161e-06
2 2 2.83952e-25 1.60218e-19 -7.72083e-08 6.06988e-08 -3.51575e-06
3 3 2.83952e-25 1.60218e-19 6.9527e-08 4.92898e-08 1.15157e-08
4 4 2.83952e-25 1.60218e-19 1.8893e-07 6.89334e-08 3.51217e-06
5 5 2.83952e-25 1.60218e-19 -8.70449e-08 -8.62692e-08 7.63367e-06
ITEM: TIMESTEP
1100
ITEM: NUMBER OF ATOMS
5
ITEM: BOX BOUNDS mm mm mm
-1.0000000000000000e-03 1.0000000000000000e-03
-1.0000000000000000e-03 1.0000000000000000e-03
-1.0000000000000000e-03 1.0000000000000000e-03
ITEM: ATOMS id id mass q x y z
1 1 2.83952e-25 1.60218e-19 -1.22256e-07 -1.22528e-07 -1.14371e-05
2 2 2.83952e-25 1.60218e-19 7.06417e-08 -6.68639e-08 -5.49104e-06
3 3 2.83952e-25 1.60218e-19 -4.37064e-08 -2.05211e-08 -4.27534e-08
4 4 2.83952e-25 1.60218e-19 -1.53776e-07 -3.35042e-08 5.52925e-06
5 5 2.83952e-25 1.60218e-19 6.66551e-08 9.32629e-08 1.14416e-05
ITEM: TIMESTEP
1200
ITEM: NUMBER OF ATOMS
5
ITEM: BOX BOUNDS mm mm mm
-1.0000000000000000e-03 1.0000000000000000e-03
-1.0000000000000000e-03 1.0000000000000000e-03
-1.0000000000000000e-03 1.0000000000000000e-03
ITEM: ATOMS id id mass q x y z
1 1 2.83952e-25 1.60218e-19 1.40004e-07 1.68146e-07 -1.56646e-05
2 2 2.83952e-25 1.60218e-19 -6.81288e-08 2.39006e-08 -7.3023e-06
3 3 2.83952e-25 1.60218e-19 -2.54807e-09 1.6804e-08 4.22914e-08
4 4 2.83952e-25 1.60218e-19 9.49303e-08 -3.3891e-08 7.25296e-06
5 5 2.83952e-25 1.60218e-19 -3.43594e-08 -6.80503e-08 1.56716e-05
ITEM: TIMESTEP
1300
ITEM: NUMBER OF ATOMS
5
ITEM: BOX BOUNDS mm mm mm
-1.0000000000000000e-03 1.0000000000000000e-03
-1.0000000000000000e-03 1.0000000000000000e-03
-1.0000000000000000e-03 1.0000000000000000e-03
ITEM: ATOMS id id mass q x y z
1 1 2.83952e-25 1.60218e-19 -1.17904e-07 -1.60202e-07 -1.31756e-05
2 2 2.83952e-25 1.60218e-19 5.30183e-08 2.38796e-08 -6.15941e-06
3 3 2.83952e-25 1.60218e-19 4.27485e-08 -1.06954e-08 -5.05877e-09
4 4 2.83952e-25 1.60218e-19 -2.25799e-08 8.31069e-08 6.17933e-06
5 5 2.83952e-25 1.60218e-19 -9.09864e-10 2.63588e-08 1.31607e-05
ITEM: TIMESTEP
1400
ITEM: NUMBER OF ATOMS
5
ITEM: BOX BOUNDS mm mm mm
-1.0000000000000000e-03 1.0000000000000000e-03
-1.0000000000000000e-03 1.0000000000000000e-03
-1.0000000000000000e-03 1.0000000000000000e-03
ITEM: ATOMS id id mass q x y z
1 1 2.83952e-25 1.60218e-19 7.53971e-08 1.11849e-07 -8.71261e-06
2 2 2.83952e-25 1.60218e-19 -4.22085e-08 -5.87474e-08 -4.16232e-06
3 3 2.83952e-25 1.60218e-19 -6.54428e-08 -3.7764e-10 1.33404e-08
4 4 2.83952e-25 1.60218e-19 -2.8397e-08 -9.67302e-08 4.13558e-06
5 5 2.83952e-25 1.60218e-19 2.13289e-08 1.16433e-08 8.72601e-06
ITEM: TIMESTEP
1500
ITEM: NUMBER OF ATOMS
5
ITEM: BOX BOUNDS mm mm mm
-1.0000000000000000e-03 1.0000000000000000e-03
-1.0000000000000000e-03 1.0000000000000000e-03
-1.0000000000000000e-03 1.0000000000000000e-03
ITEM: ATOMS id id mass q x y z
1 1 2.83952e-25 1.60218e-19 -2.95702e-08 -5.01584e-08 -1.08275e-05
2 2 2.83952e-25 1.60218e-19 3.39857e-08 7.91581e-08 -5.09922e-06
3 3 2.83952e-25 1.60218e-19 7.16916e-08 8.32766e-09 -1.75046e-08
4 4 2.83952e-25 1.60218e-19 5.47663e-08 8.71886e-08 5.13003e-06
5 5 2.83952e-25 1.60218e-19 -3.22434e-08 -4.33408e-08 1.08142e-05
ITEM: TIMESTEP
1600
ITEM: NUMBER OF ATOMS
5
ITEM: BOX BOUNDS mm mm mm
-1.0000000000000000e-03 1.0000000000000000e-03
-1.0000000000000000e-03 1.0000000000000000e-03
-1.0000000000000000e-03 1.0000000000000000e-03
ITEM: ATOMS id id mass q x y z
1 1 2.83952e-25 1.60218e-19 -2.19122e-08 -1.29141e-08 -1.4163e-05
2 2 2.83952e-25 1.60218e-19 -2.19651e-09 -8.79287e-08 -6.76093e-06
3 3 2.83952e-25 1.60218e-19 -6.00871e-08 6.50535e-09 3.06436e-08
4 4 2.83952e-25 1.60218e-19 -7.84229e-08 -7.22701e-08 6.72743e-06
5 5 2.83952e-25 1.60218e-19 4.45458e-08 6.94302e-08 1.41658e-05
ITEM: TIMESTEP
1700
ITEM: NUMBER OF ATOMS
5
ITEM: BOX BOUNDS mm mm mm
-1.0000000000000000e-03 1.0000000000000000e-03
-1.0000000000000000e-03 1.0000000000000000e-03
-1.0000000000000000e-03 1.0000000000000000e-03
ITEM: ATOMS id id mass q x y z
1 1 2.83952e-25 1.60218e-19 6.03087e-08 6.06651e-08 -1.28983e-05
2 2 2.83952e-25 1.60218e-19 -3.05586e-08 7.4454e-08 -5.99502e-06
3 3 2.83952e-25 1.60218e-19 3.38505e-08 -2.45637e-08 -2.52548e-08
4 4 2.83952e-25 1.60218e-19 8.07374e-08 4.53835e-08 6.01836e-06
5 5 2.83952e-25 1.60218e-19 -4.63471e-08 -7.52897e-08 1.29002e-05
ITEM: TIMESTEP
1800
ITEM: NUMBER OF ATOMS
5
ITEM: BOX BOUNDS mm mm mm
-1.0000000000000000e-03 1.0000000000000000e-03
-1.0000000000000000e-03 1.0000000000000000e-03
-1.0000000000000000e-03 1.0000000000000000e-03
ITEM: ATOMS id id mass q x y z
1 1 2.83952e-25 1.60218e-19 -7.44913e-08 -7.94199e-08 -9.60436e-06
2 2 2.83952e-25 1.60218e-19 5.29837e-08 -4.89596e-08 -4.59333e-06
3 3 2.83952e-25 1.60218e-19 -4.51412e-09 4.13686e-08 1.85677e-08
4 4 2.83952e-25 1.60218e-19 -6.42212e-08 -1.86238e-08 4.57133e-06
5 5 2.83952e-25 1.60218e-19 3.93774e-08 6.37709e-08 9.60779e-06
ITEM: TIMESTEP
1900
ITEM: NUMBER OF ATOMS
5
ITEM: BOX BOUNDS mm mm mm
-1.0000000000000000e-03 1.0000000000000000e-03
-1.0000000000000000e-03 1.0000000000000000e-03
-1.0000000000000000e-03 1.0000000000000000e-03
ITEM: ATOMS id id mass q x y z
1 1 2.83952e-25 1.60218e-19 6.9361e-08 7.20147e-08 -1.05884e-05
2 2 2.83952e-25 1.60218e-19 -6.65107e-08 2.10039e-08 -4.92808e-06
3 3 2.83952e-25 1.60218e-19 -2.02801e-08 -5.55654e-08 -1.19958e-08
4 4 2.83952e-25 1.60218e-19 4.18735e-08 9.28734e-10 4.94492e-06
5 5 2.83952e-25 1.60218e-19 -2.89052e-08 -4.20538e-08 1.05836e-05
ITEM: TIMESTEP
2000
ITEM: NUMBER OF ATOMS
5
ITEM: BOX BOUNDS mm mm mm
-1.0000000000000000e-03 1.0000000000000000e-03
-1.0000000000000000e-03 1.0000000000000000e-03
-1.0000000000000000e-03 1.0000000000000000e-03
ITEM: ATOMS id id mass q x y z
1 1 2.83952e-25 1.60218e-19 -5.29397e-08 -5.02654e-08 -1.31656e-05
2 2 2.83952e-25 1.60218e-19 6.86733e-08 1.12947e-08 -6.26415e-06
3 3 2.83952e-25 1.60218e-19 3.89368e-08 5.64091e-08 1.16071e-08
4 4 2.83952e-25 1.60218e-19 -1.72527e-08 1.39865e-08 6.2411e-06
5 5 2.83952e-25 1.60218e-19 1.21965e-08 9.40897e-09 1.3177e-05
ITEM: TIMESTEP
2100
ITEM: NUMBER OF ATOMS
5
ITEM: BOX BOUNDS mm mm mm
-1.0000000000000000e-03 1.0000000000000000e-03
-1.0000000000000000e-03 1.0000000000000000e-03
-1.0000000000000000e-03 1.0000000000000000e-03
ITEM: ATOMS id id mass q x y z
1 1 2.83952e-25 1.60218e-19 2.75751e-08 1.96869e-08 -1.26377e-05
2 2 2.83952e-25 1.60218e-19 -5.4998e-08 -3.63629e-08 -5.96348e-06
3 3 2.83952e-25 1.60218e-19 -4.50121e-08 -4.31317e-08 -1.59301e-08
4 4 2.83952e-25 1.60218e-19 -5.37599e-09 -2.19164e-08 5.98647e-06
5 5 2.83952e-25 1.60218e-19 5.5333e-09 2.22377e-08 1.26307e-05
ITEM: TIMESTEP
2200
ITEM: NUMBER OF ATOMS
5
ITEM: BOX BOUNDS mm mm mm
-1.0000000000000000e-03 1.0000000000000000e-03
-1.0000000000000000e-03 1.0000000000000000e-03
-1.0000000000000000e-03 1.0000000000000000e-03
ITEM: ATOMS id id mass q x y z
1 1 2.83952e-25 1.60218e-19 -2.76803e-09 9.09114e-09 -1.03011e-05
2 2 2.83952e-25 1.60218e-19 3.30775e-08 4.63764e-08 -4.83793e-06
3 3 2.83952e-25 1.60218e-19 3.85886e-08 2.44371e-08 1.41873e-08
4 4 2.83952e-25 1.60218e-19 1.86466e-08 2.00898e-08 4.82275e-06
5 5 2.83952e-25 1.60218e-19 -1.85099e-08 -4.3177e-08 1.03021e-05
ITEM: TIMESTEP
2300
ITEM: NUMBER OF ATOMS
5
ITEM: BOX BOUNDS mm mm mm
-1.0000000000000000e-03 1.0000000000000000e-03
-1.0000000000000000e-03 1.0000000000000000e-03
-1.0000000000000000e-03 1.0000000000000000e-03
ITEM: ATOMS id id mass q x y z
1 1 2.83952e-25 1.60218e-19 -1.44332e-08 -2.76878e-08 -1.05327e-05
2 2 2.83952e-25 1.60218e-19 -9.48468e-09 -4.30522e-08 -4.99006e-06
3 3 2.83952e-25 1.60218e-19 -2.42533e-08 -4.54763e-09 -9.15544e-09
4 4 2.83952e-25 1.60218e-19 -2.2115e-08 -1.269e-08 4.99639e-06
5 5 2.83952e-25 1.60218e-19 2.52804e-08 5.09366e-08 1.05356e-05
ITEM: TIMESTEP
2400
ITEM: NUMBER OF ATOMS
5
ITEM: BOX BOUNDS mm mm mm
-1.0000000000000000e-03 1.0000000000000000e-03
-1.0000000000000000e-03 1.0000000000000000e-03
-1.0000000000000000e-03 1.0000000000000000e-03
ITEM: ATOMS id id mass q x y z
1 1 2.83952e-25 1.60218e-19 2.69349e-08 3.53755e-08 -1.25133e-05
2 2 2.83952e-25 1.60218e-19 -1.78096e-08 3.17877e-08 -5.86633e-06
3 3 2.83952e-25 1.60218e-19 5.86419e-09 -1.96673e-08 8.23552e-09
4 4 2.83952e-25 1.60218e-19 2.28668e-08 7.61985e-09 5.85975e-06
5 5 2.83952e-25 1.60218e-19 -2.69457e-08 -4.61361e-08 1.25116e-05
ITEM: TIMESTEP
2500
ITEM: NUMBER OF ATOMS
5
ITEM: BOX BOUNDS mm mm mm
-1.0000000000000000e-03 1.0000000000000000e-03
-1.0000000000000000e-03 1.0000000000000000e-03
-1.0000000000000000e-03 1.0000000000000000e-03
ITEM: ATOMS id id mass q x y z
1 1 2.83952e-25 1.60218e-19 -3.19709e-08 -3.19904e-08 -1.24122e-05
2 2 2.83952e-25 1.60218e-19 3.98092e-08 -1.55819e-08 -5.88387e-06
3 3 2.83952e-25 1.60218e-19 1.14127e-08 3.96826e-08 -8.36739e-09
4 4 2.83952e-25 1.60218e-19 -2.0449e-08 -4.91098e-09 5.89675e-06
5 5 2.83952e-25 1.60218e-19 2.23277e-08 3.0191e-08 1.24077e-05
ITEM: TIMESTEP
2600
ITEM: NUMBER OF ATOMS
5
ITEM: BOX BOUNDS mm mm mm
-1.0000000000000000e-03 1.0000000000000000e-03
-1.0000000000000000e-03 1.0000000000000000e-03
-1.0000000000000000e-03 1.0000000000000000e-03
ITEM: ATOMS id id mass q x y z
1 1 2.83952e-25 1.60218e-19 2.89818e-08 2.03404e-08 -1.07651e-05
2 2 2.83952e-25 1.60218e-19 -5.01521e-08 -3.56293e-10 -5.06387e-06
3 3 2.83952e-25 1.60218e-19 -2.24957e-08 -4.91992e-08 5.65873e-09
4 4 2.83952e-25 1.60218e-19 1.55894e-08 4.34668e-09 5.05229e-06
5 5 2.83952e-25 1.60218e-19 -1.34786e-08 -9.33265e-09 1.0771e-05
ITEM: TIMESTEP
2700
ITEM: NUMBER OF ATOMS
5
ITEM: BOX BOUNDS mm mm mm
-1.0000000000000000e-03 1.0000000000000000e-03
-1.0000000000000000e-03 1.0000000000000000e-03
-1.0000000000000000e-03 1.0000000000000000e-03
ITEM: ATOMS id id mass q x y z
1 1 2.83952e-25 1.60218e-19 -2.17175e-08 -6.00088e-09 -1.0639e-05
2 2 2.83952e-25 1.60218e-19 4.95784e-08 1.13538e-08 -5.03203e-06
3 3 2.83952e-25 1.60218e-19 2.57787e-08 4.90522e-08 -1.48314e-09
4 4 2.83952e-25 1.60218e-19 -1.12181e-08 -6.44082e-09 5.03692e-06
5 5 2.83952e-25 1.60218e-19 3.4888e-09 -1.01789e-08 1.06355e-05
ITEM: TIMESTEP
2800
ITEM: NUMBER OF ATOMS
5
ITEM: BOX BOUNDS mm mm mm
-1.0000000000000000e-03 1.0000000000000000e-03
-1.0000000000000000e-03 1.0000000000000000e-03
-1.0000000000000000e-03 1.0000000000000000e-03
ITEM: ATOMS id id mass q x y z
1 1 2.83952e-25 1.60218e-19 1.2707e-08 -6.5894e-09 -1.20389e-05
2 2 2.83952e-25 1.60218e-19 -3.92317e-08 -1.63768e-08 -5.6738e-06
3 3 2.83952e-25 1.60218e-19 -2.2279e-08 -4.02511e-08 1.93631e-09
4 4 2.83952e-25 1.60218e-19 7.42095e-09 9.33217e-09 5.6717e-06
5 5 2.83952e-25 1.60218e-19 5.9764e-09 2.47447e-08 1.2039e-05
ITEM: TIMESTEP
2900
ITEM: NUMBER OF ATOMS
5
ITEM: BOX BOUNDS mm mm mm
-1.0000000000000000e-03 1.0000000000000000e-03
-1.0000000000000000e-03 1.0000000000000000e-03
-1.0000000000000000e-03 1.0000000000000000e-03
ITEM: ATOMS id id mass q x y z
1 1 2.83952e-25 1.60218e-19 -3.17333e-09 1.47204e-08 -1.2225e-05
2 2 2.83952e-25 1.60218e-19 2.13565e-08 1.52923e-08 -5.75168e-06
3 3 2.83952e-25 1.60218e-19 1.36152e-08 2.44964e-08 -4.77331e-09
4 4 2.83952e-25 1.60218e-19 -3.48379e-09 -1.07218e-08 5.75438e-06
5 5 2.83952e-25 1.60218e-19 -1.2667e-08 -3.0909e-08 1.22271e-05
ITEM: TIMESTEP
3000
ITEM: NUMBER OF ATOMS
5
ITEM: BOX BOUNDS mm mm mm
-1.0000000000000000e-03 1.0000000000000000e-03
-1.0000000000000000e-03 1.0000000000000000e-03
-1.0000000000000000e-03 1.0000000000000000e-03
ITEM: ATOMS id id mass q x y z
1 1 2.83952e-25 1.60218e-19 -4.34223e-09 -1.68901e-08 -1.10681e-05
2 2 2.83952e-25 1.60218e-19 -1.96762e-09 -9.43771e-09 -5.24224e-06
3 3 2.83952e-25 1.60218e-19 -3.04322e-09 -7.04904e-09 3.84708e-09
4 4 2.83952e-25 1.60218e-19 2.42023e-10 1.02606e-08 5.23936e-06
5 5 2.83952e-25 1.60218e-19 1.49086e-08 2.78878e-08 1.10671e-05
ITEM: TIMESTEP
3100
ITEM: NUMBER OF ATOMS
5
ITEM: BOX BOUNDS mm mm mm
-1.0000000000000000e-03 1.0000000000000000e-03
-1.0000000000000000e-03 1.0000000000000000e-03
-1.0000000000000000e-03 1.0000000000000000e-03
ITEM: ATOMS id id mass q x y z
1 1 2.83952e-25 1.60218e-19 8.88336e-09 1.39082e-08 -1.07972e-05
2 2 2.83952e-25 1.60218e-19 -1.40663e-08 1.41479e-09 -5.07245e-06
3 3 2.83952e-25 1.60218e-19 -6.19344e-09 -7.42436e-09 -1.09097e-10
4 4 2.83952e-25 1.60218e-19 2.32288e-09 -7.92537e-09 5.0728e-06
5 5 2.83952e-25 1.60218e-19 -1.29902e-08 -1.81158e-08 1.0797e-05
ITEM: TIMESTEP
3200
ITEM: NUMBER OF ATOMS
5
ITEM: BOX BOUNDS mm mm mm
-1.0000000000000000e-03 1.0000000000000000e-03
-1.0000000000000000e-03 1.0000000000000000e-03
-1.0000000000000000e-03 1.0000000000000000e-03
ITEM: ATOMS id id mass q x y z
1 1 2.83952e-25 1.60218e-19 -1.15062e-08 -8.06633e-09 -1.17316e-05
2 2 2.83952e-25 1.60218e-19 2.5418e-08 5.4922e-09 -5.55468e-06
3 3 2.83952e-25 1.60218e-19 1.22608e-08 1.8547e-08 -1.81103e-09
4 4 2.83952e-25 1.60218e-19 -5.46755e-09 2.90761e-09 5.55465e-06
5 5 2.83952e-25 1.60218e-19 8.19951e-09 4.90876e-09 1.17335e-05
ITEM: TIMESTEP
3300
ITEM: NUMBER OF ATOMS
5
ITEM: BOX BOUNDS mm mm mm
-1.0000000000000000e-03 1.0000000000000000e-03
-1.0000000000000000e-03 1.0000000000000000e-03
-1.0000000000000000e-03 1.0000000000000000e-03
ITEM: ATOMS id id mass q x y z
1 1 2.83952e-25 1.60218e-19 1.22196e-08 1.50412e-09 -1.20445e-05
2 2 2.83952e-25 1.60218e-19 -3.02016e-08 -9.32277e-09 -5.66573e-06
3 3 2.83952e-25 1.60218e-19 -1.41974e-08 -2.48344e-08 8.71749e-10
4 4 2.83952e-25 1.60218e-19 8.56082e-09 3.58929e-09 5.66657e-06
5 5 2.83952e-25 1.60218e-19 -2.13693e-09 7.86629e-09 1.20428e-05
ITEM: TIMESTEP
3400
ITEM: NUMBER OF ATOMS
5
ITEM: BOX BOUNDS mm mm mm
-1.0000000000000000e-03 1.0000000000000000e-03
-1.0000000000000000e-03 1.0000000000000000e-03
-1.0000000000000000e-03 1.0000000000000000e-03
ITEM: ATOMS id id mass q x y z
1 1 2.83952e-25 1.60218e-19 -1.09627e-08 3.81897e-09 -1.12746e-05
2 2 2.83952e-25 1.60218e-19 2.78433e-08 9.51405e-09 -5.32338e-06
3 3 2.83952e-25 1.60218e-19 1.2083e-08 2.50393e-08 1.59037e-10
4 4 2.83952e-25 1.60218e-19 -1.0477e-08 -9.26215e-09 5.32346e-06
5 5 2.83952e-25 1.60218e-19 -3.32684e-09 -1.66332e-08 1.12744e-05
ITEM: TIMESTEP
3500
ITEM: NUMBER OF ATOMS
5
ITEM: BOX BOUNDS mm mm mm
-1.0000000000000000e-03 1.0000000000000000e-03
-1.0000000000000000e-03 1.0000000000000000e-03
-1.0000000000000000e-03 1.0000000000000000e-03
ITEM: ATOMS id id mass q x y z
1 1 2.83952e-25 1.60218e-19 8.54177e-09 -6.6175e-09 -1.09373e-05
2 2 2.83952e-25 1.60218e-19 -2.04907e-08 -6.53593e-09 -5.16018e-06
3 3 2.83952e-25 1.60218e-19 -7.33051e-09 -2.0705e-08 4.95191e-10
4 4 2.83952e-25 1.60218e-19 1.09624e-08 1.29135e-08 5.15778e-06
5 5 2.83952e-25 1.60218e-19 6.74577e-09 1.96517e-08 1.09392e-05
ITEM: TIMESTEP
3600
ITEM: NUMBER OF ATOMS
5
ITEM: BOX BOUNDS mm mm mm
-1.0000000000000000e-03 1.0000000000000000e-03
-1.0000000000000000e-03 1.0000000000000000e-03
-1.0000000000000000e-03 1.0000000000000000e-03
ITEM: ATOMS id id mass q x y z
1 1 2.83952e-25 1.60218e-19 -5.29073e-09 6.92168e-09 -1.15623e-05
2 2 2.83952e-25 1.60218e-19 1.04685e-08 1.46206e-09 -5.4468e-06
3 3 2.83952e-25 1.60218e-19 1.66152e-09 1.40032e-08 -1.21689e-09
4 4 2.83952e-25 1.60218e-19 -9.59552e-09 -1.39619e-08 5.45002e-06
5 5 2.83952e-25 1.60218e-19 -7.58512e-09 -1.69363e-08 1.15603e-05
ITEM: TIMESTEP
3700
ITEM: NUMBER OF ATOMS
5
ITEM: BOX BOUNDS mm mm mm
-1.0000000000000000e-03 1.0000000000000000e-03
-1.0000000000000000e-03 1.0000000000000000e-03
-1.0000000000000000e-03 1.0000000000000000e-03
ITEM: ATOMS id id mass q x y z
1 1 2.83952e-25 1.60218e-19 1.46567e-09 -5.36755e-09 -1.1878e-05
2 2 2.83952e-25 1.60218e-19 5.14237e-11 4.02093e-09 -5.61456e-06
3 3 2.83952e-25 1.60218e-19 3.41495e-09 -6.46768e-09 1.59666e-09
4 4 2.83952e-25 1.60218e-19 6.21287e-09 1.21014e-08 5.61245e-06
5 5 2.83952e-25 1.60218e-19 6.02378e-09 9.84327e-09 1.18785e-05
ITEM: TIMESTEP
3800
ITEM: NUMBER OF ATOMS
5
ITEM: BOX BOUNDS mm mm mm
-1.0000000000000000e-03 1.0000000000000000e-03
-1.0000000000000000e-03 1.0000000000000000e-03
-1.0000000000000000e-03 1.0000000000000000e-03
ITEM: ATOMS id id mass q x y z
1 1 2.83952e-25 1.60218e-19 2.14568e-09 2.83034e-09 -1.14011e-05
2 2 2.83952e-25 1.60218e-19 -8.50977e-09 -8.23764e-09 -5.3654e-06
3 3 2.83952e-25 1.60218e-19 -6.63396e-09 -1.12004e-10 -1.9676e-09
4 4 2.83952e-25 1.60218e-19 -1.73178e-09 -8.05194e-09 5.36656e-06
5 5 2.83952e-25 1.60218e-19 -2.88289e-09 -9.24518e-10 1.14019e-05
ITEM: TIMESTEP
3900
ITEM: NUMBER OF ATOMS
5
ITEM: BOX BOUNDS mm mm mm
-1.0000000000000000e-03 1.0000000000000000e-03
-1.0000000000000000e-03 1.0000000000000000e-03
-1.0000000000000000e-03 1.0000000000000000e-03
ITEM: ATOMS id id mass q x y z
1 1 2.83952e-25 1.60218e-19 -4.93288e-09 -3.50005e-10 -1.10664e-05
2 2 2.83952e-25 1.60218e-19 1.33978e-08 1.02351e-08 -5.23112e-06
3 3 2.83952e-25 1.60218e-19 7.53548e-09 4.4611e-09 2.39203e-09
4 4 2.83952e-25 1.60218e-19 -2.78741e-09 3.1029e-09 5.22931e-06
5 5 2.83952e-25 1.60218e-19 -6.61527e-10 -7.1189e-09 1.10658e-05
ITEM: TIMESTEP
4000
ITEM: NUMBER OF ATOMS
5
ITEM: BOX BOUNDS mm mm mm
-1.0000000000000000e-03 1.0000000000000000e-03
-1.0000000000000000e-03 1.0000000000000000e-03
-1.0000000000000000e-03 1.0000000000000000e-03
ITEM: ATOMS id id mass q x y z
1 1 2.83952e-25 1.60218e-19 6.7244e-09 -1.31701e-09 -1.14595e-05
2 2 2.83952e-25 1.60218e-19 -1.47985e-08 -9.69376e-09 -5.39553e-06
3 3 2.83952e-25 1.60218e-19 -6.42577e-09 -6.67831e-09 -2.239e-09
4 4 2.83952e-25 1.60218e-19 6.62165e-09 1.72662e-09 5.39819e-06
5 5 2.83952e-25 1.60218e-19 3.45615e-09 1.2323e-08 1.14591e-05
ITEM: TIMESTEP
4100
ITEM: NUMBER OF ATOMS
5
ITEM: BOX BOUNDS mm mm mm
-1.0000000000000000e-03 1.0000000000000000e-03
-1.0000000000000000e-03 1.0000000000000000e-03
-1.0000000000000000e-03 1.0000000000000000e-03
ITEM: ATOMS id id mass q x y z
1 1 2.83952e-25 1.60218e-19 -7.24987e-09 1.95196e-09 -1.17538e-05
2 2 2.83952e-25 1.60218e-19 1.31822e-08 6.87775e-09 -5.54991e-06
3 3 2.83952e-25 1.60218e-19 3.98267e-09 7.1988e-09 1.62621e-09
4 4 2.83952e-25 1.60218e-19 -8.97246e-09 -5.54019e-09 5.54685e-06
5 5 2.83952e-25 1.60218e-19 -4.72169e-09 -1.35987e-08 1.17552e-05
ITEM: TIMESTEP
4200
ITEM: NUMBER OF ATOMS
5
ITEM: BOX BOUNDS mm mm mm
-1.0000000000000000e-03 1.0000000000000000e-03
-1.0000000000000000e-03 1.0000000000000000e-03
-1.0000000000000000e-03 1.0000000000000000e-03
ITEM: ATOMS id id mass q x y z
1 1 2.83952e-25 1.60218e-19 6.40074e-09 -1.665e-09 -1.14631e-05
2 2 2.83952e-25 1.60218e-19 -9.38301e-09 -2.75721e-09 -5.40599e-06
3 3 2.83952e-25 1.60218e-19 -1.07088e-09 -6.34649e-09 -1.39521e-09
4 4 2.83952e-25 1.60218e-19 9.29298e-09 7.53731e-09 5.40881e-06
5 5 2.83952e-25 1.60218e-19 4.27031e-09 1.10585e-08 1.14617e-05
ITEM: TIMESTEP
4300
ITEM: NUMBER OF ATOMS
5
ITEM: BOX BOUNDS mm mm mm
-1.0000000000000000e-03 1.0000000000000000e-03
-1.0000000000000000e-03 1.0000000000000000e-03
-1.0000000000000000e-03 1.0000000000000000e-03
ITEM: ATOMS id id mass q x y z
1 1 2.83952e-25 1.60218e-19 -4.49316e-09 8.26463e-10 -1.11792e-05
2 2 2.83952e-25 1.60218e-19 4.73324e-09 -1.46531e-09 -5.27088e-06
3 3 2.83952e-25 1.60218e-19 -1.45092e-09 4.75934e-09 1.80725e-09
4 4 2.83952e-25 1.60218e-19 -7.73708e-09 -7.58648e-09 5.26837e-06
5 5 2.83952e-25 1.60218e-19 -2.44738e-09 -5.91266e-09 1.118e-05
ITEM: TIMESTEP
4400
ITEM: NUMBER OF ATOMS
5
ITEM: BOX BOUNDS mm mm mm
-1.0000000000000000e-03 1.0000000000000000e-03
-1.0000000000000000e-03 1.0000000000000000e-03
-1.0000000000000000e-03 1.0000000000000000e-03
ITEM: ATOMS id id mass q x y z
1 1 2.83952e-25 1.60218e-19 1.94529e-09 4.26922e-11 -1.14008e-05
2 2 2.83952e-25 1.60218e-19 -3.03882e-10 4.93137e-09 -5.38199e-06
3 3 2.83952e-25 1.60218e-19 3.07745e-09 -3.15526e-09 -2.21239e-09
4 4 2.83952e-25 1.60218e-19 4.79481e-09 6.15667e-09 5.38418e-06
5 5 2.83952e-25 1.60218e-19 -4.91935e-11 -1.85936e-10 1.14008e-05
ITEM: TIMESTEP
4500
ITEM: NUMBER OF ATOMS
5
ITEM: BOX BOUNDS mm mm mm
-1.0000000000000000e-03 1.0000000000000000e-03
-1.0000000000000000e-03 1.0000000000000000e-03
-1.0000000000000000e-03 1.0000000000000000e-03
ITEM: ATOMS id id mass q x y z
1 1 2.83952e-25 1.60218e-19 7.72187e-10 -5.38025e-10 -1.16604e-05
2 2 2.83952e-25 1.60218e-19 -3.26036e-09 -7.04207e-09 -5.49443e-06
3 3 2.83952e-25 1.60218e-19 -3.65101e-09 1.86043e-09 2.18865e-09
4 4 2.83952e-25 1.60218e-19 -1.15119e-09 -3.88933e-09 5.49245e-06
5 5 2.83952e-25 1.60218e-19 2.37009e-09 5.55947e-09 1.16602e-05
ITEM: TIMESTEP
4600
ITEM: NUMBER OF ATOMS
5
ITEM: BOX BOUNDS mm mm mm
-1.0000000000000000e-03 1.0000000000000000e-03
-1.0000000000000000e-03 1.0000000000000000e-03
-1.0000000000000000e-03 1.0000000000000000e-03
ITEM: ATOMS id id mass q x y z
1 1 2.83952e-25 1.60218e-19 -3.03746e-09 5.30866e-10 -1.14913e-05
2 2 2.83952e-25 1.60218e-19 5.45048e-09 7.47474e-09 -5.42493e-06
3 3 2.83952e-25 1.60218e-19 3.25647e-09 -9.81968e-10 -1.76617e-09
4 4 2.83952e-25 1.60218e-19 -2.2829e-09 1.46708e-09 5.42701e-06
5 5 2.83952e-25 1.60218e-19 -3.80615e-09 -8.83603e-09 1.1491e-05
ITEM: TIMESTEP
4700
ITEM: NUMBER OF ATOMS
5
ITEM: BOX BOUNDS mm mm mm
-1.0000000000000000e-03 1.0000000000000000e-03
-1.0000000000000000e-03 1.0000000000000000e-03
-1.0000000000000000e-03 1.0000000000000000e-03
ITEM: ATOMS id id mass q x y z
1 1 2.83952e-25 1.60218e-19 4.4008e-09 -8.58661e-11 -1.12628e-05
2 2 2.83952e-25 1.60218e-19 -6.15405e-09 -6.41096e-09 -5.3098e-06
3 3 2.83952e-25 1.60218e-19 -2.22224e-09 5.22047e-10 1.38232e-09
4 4 2.83952e-25 1.60218e-19 4.74874e-09 4.81488e-10 5.30753e-06
5 5 2.83952e-25 1.60218e-19 4.00758e-09 9.42805e-09 1.12637e-05
ITEM: TIMESTEP
4800
ITEM: NUMBER OF ATOMS
5
ITEM: BOX BOUNDS mm mm mm
-1.0000000000000000e-03 1.0000000000000000e-03
-1.0000000000000000e-03 1.0000000000000000e-03
-1.0000000000000000e-03 1.0000000000000000e-03
ITEM: ATOMS id id mass q x y z
1 1 2.83952e-25 1.60218e-19 -4.71476e-09 -5.77733e-10 -1.13803e-05
2 2 2.83952e-25 1.60218e-19 5.68255e-09 4.34053e-09 -5.36868e-06
3 3 2.83952e-25 1.60218e-19 9.60142e-10 -3.04158e-10 -1.24379e-09
4 4 2.83952e-25 1.60218e-19 -5.9038e-09 -1.64525e-09 5.37093e-06
5 5 2.83952e-25 1.60218e-19 -2.99753e-09 -7.55268e-09 1.13793e-05
ITEM: TIMESTEP
4900
ITEM: NUMBER OF ATOMS
5
ITEM: BOX BOUNDS mm mm mm
-1.0000000000000000e-03 1.0000000000000000e-03
-1.0000000000000000e-03 1.0000000000000000e-03
-1.0000000000000000e-03 1.0000000000000000e-03
ITEM: ATOMS id id mass q x y z
1 1 2.83952e-25 1.60218e-19 4.02782e-09 1.15751e-09 -1.15839e-05
2 2 2.83952e-25 1.60218e-19 -4.41298e-09 -1.80534e-09 -5.46524e-06
3 3 2.83952e-25 1.60218e-19 1.97499e-10 1.06647e-10 1.32216e-09
4 4 2.83952e-25 1.60218e-19 5.71004e-09 2.03407e-09 5.46332e-06
5 5 2.83952e-25 1.60218e-19 1.14318e-09 3.99305e-09 1.15845e-05
ITEM: TIMESTEP
5000
ITEM: NUMBER OF ATOMS
5
ITEM: BOX BOUNDS mm mm mm
-1.0000000000000000e-03 1.0000000000000000e-03
-1.0000000000000000e-03 1.0000000000000000e-03
-1.0000000000000000e-03 1.0000000000000000e-03
ITEM: ATOMS id id mass q x y z
1 1 2.83952e-25 1.60218e-19 -2.59485e-09 -1.41398e-09 -1.15038e-05
2 2 2.83952e-25 1.60218e-19 2.71663e-09 -6.06985e-10 -5.42321e-06
3 3 2.83952e-25 1.60218e-19 -1.02184e-09 1.45423e-10 -1.44056e-09
4 4 2.83952e-25 1.60218e-19 -4.39674e-09 -1.81001e-09 5.42471e-06
5 5 2.83952e-25 1.60218e-19 9.46911e-10 1.05473e-10 1.15038e-05
ITEM: TIMESTEP
5100
ITEM: NUMBER OF ATOMS
5
ITEM: BOX BOUNDS mm mm mm
-1.0000000000000000e-03 1.0000000000000000e-03
-1.0000000000000000e-03 1.0000000000000000e-03
-1.0000000000000000e-03 1.0000000000000000e-03
ITEM: ATOMS id id mass q x y z
1 1 2.83952e-25 1.60218e-19 8.43395e-10 1.25207e-09 -1.13222e-05
2 2 2.83952e-25 1.60218e-19 -9.88639e-10 2.41589e-09 -5.34436e-06
3 3 2.83952e-25 1.60218e-19 1.41503e-09 -4.56751e-10 1.37935e-09
4 4 2.83952e-25 1.60218e-19 2.44568e-09 1.24924e-09 5.34309e-06
5 5 2.83952e-25 1.60218e-19 -2.65523e-09 -3.58785e-09 1.13221e-05
ITEM: TIMESTEP
5200
ITEM: NUMBER OF ATOMS
5
ITEM: BOX BOUNDS mm mm mm
-1.0000000000000000e-03 1.0000000000000000e-03
-1.0000000000000000e-03 1.0000000000000000e-03
-1.0000000000000000e-03 1.0000000000000000e-03
ITEM: ATOMS id id mass q x y z
1 1 2.83952e-25 1.60218e-19 8.09419e-10 -7.03072e-10 -1.13776e-05
2 2 2.83952e-25 1.60218e-19 -5.08663e-10 -3.42286e-09 -5.36248e-06
3 3 2.83952e-25 1.60218e-19 -1.42617e-09 8.13944e-10 -1.13942e-09