ITEM: TIMESTEP
0
ITEM: NUMBER OF ATOMS
5
ITEM: BOX BOUNDS mm mm mm
-1.0000000000000000e-03 1.0000000000000000e-03
-1.0000000000000000e-03 1.0000000000000000e-03
-1.0000000000000000e-03 1.0000000000000000e-03
ITEM: ATOMS id id mass q x y z
1 1 2.83952e-25 1.60218e-19 -5.6224e-08 1.53238e-07 -2.5e-05
2 2 2.83952e-25 1.60218e-19 4.83489e-07 -1.1774e-07 -1.25e-05
3 3 2.83952e-25 1.60218e-19 -4.60298e-07 -1.21962e-07 0
4 4 2.83952e-25 1.60218e-19 3.88503e-07 8.23762e-08 1.25e-05
5 5 2.29154e-25 1.60218e-19 4.62832e-07 4.84566e-07 2.5e-05
ITEM: TIMESTEP
100
ITEM: NUMBER OF ATOMS
5
ITEM: BOX BOUNDS mm mm mm
-1.0000000000000000e-03 1.0000000000000000e-03
-1.0000000000000000e-03 1.0000000000000000e-03
-1.0000000000000000e-03 1.0000000000000000e-03
ITEM: ATOMS id id mass q x y z
1 1 2.83952e-25 1.60218e-19 8.70526e-09 -2.84164e-08 -2.35292e-05
2 2 2.83952e-25 1.60218e-19 -8.72336e-08 2.15543e-08 -1.16147e-05
3 3 2.83952e-25 1.60218e-19 8.08668e-08 2.24704e-08 -7.52822e-10
4 4 2.83952e-25 1.60218e-19 -7.04539e-08 -1.51931e-08 1.16101e-05
5 5 2.29154e-25 1.60218e-19 -3.64361e-07 -3.8093e-07 2.31905e-05
ITEM: TIMESTEP
200
ITEM: NUMBER OF ATOMS
5
ITEM: BOX BOUNDS mm mm mm
-1.0000000000000000e-03 1.0000000000000000e-03
-1.0000000000000000e-03 1.0000000000000000e-03
-1.0000000000000000e-03 1.0000000000000000e-03
ITEM: ATOMS id id mass q x y z
1 1 2.83952e-25 1.60218e-19 4.64863e-08 -1.22435e-07 -1.97588e-05
2 2 2.83952e-25 1.60218e-19 -3.88935e-07 9.43471e-08 -9.36975e-06
3 3 2.83952e-25 1.60218e-19 3.72829e-07 9.77318e-08 -1.24585e-08
4 4 2.83952e-25 1.60218e-19 -3.12202e-07 -6.57872e-08 9.29474e-06
5 5 2.29154e-25 1.60218e-19 1.6988e-07 1.76213e-07 1.87063e-05
ITEM: TIMESTEP
300
ITEM: NUMBER OF ATOMS
5
ITEM: BOX BOUNDS mm mm mm
-1.0000000000000000e-03 1.0000000000000000e-03
-1.0000000000000000e-03 1.0000000000000000e-03
-1.0000000000000000e-03 1.0000000000000000e-03
ITEM: ATOMS id id mass q x y z
1 1 2.83952e-25 1.60218e-19 -2.0152e-08 7.03605e-08 -1.51088e-05
2 2 2.83952e-25 1.60218e-19 2.08994e-07 -5.30547e-08 -6.78686e-06
3 3 2.83952e-25 1.60218e-19 -1.86172e-07 -5.41629e-08 -9.23493e-08
4 4 2.83952e-25 1.60218e-19 1.66482e-07 3.57492e-08 6.4032e-06
5 5 2.29154e-25 1.60218e-19 4.86221e-08 5.14496e-08 1.3736e-05
ITEM: TIMESTEP
400
ITEM: NUMBER OF ATOMS
5
ITEM: BOX BOUNDS mm mm mm
-1.0000000000000000e-03 1.0000000000000000e-03
-1.0000000000000000e-03 1.0000000000000000e-03
-1.0000000000000000e-03 1.0000000000000000e-03
ITEM: ATOMS id id mass q x y z
1 1 2.83952e-25 1.60218e-19 -4.05963e-08 8.36164e-08 -1.16533e-05
2 2 2.83952e-25 1.60218e-19 2.91217e-07 -6.65912e-08 -5.56081e-06
3 3 2.83952e-25 1.60218e-19 -3.0753e-07 -7.22223e-08 -4.18768e-07
4 4 2.83952e-25 1.60218e-19 2.34687e-07 4.76011e-08 4.68854e-06
5 5 2.29154e-25 1.60218e-19 -2.24584e-07 -2.30663e-07 1.11033e-05
ITEM: TIMESTEP
500
ITEM: NUMBER OF ATOMS
5
ITEM: BOX BOUNDS mm mm mm
-1.0000000000000000e-03 1.0000000000000000e-03
-1.0000000000000000e-03 1.0000000000000000e-03
-1.0000000000000000e-03 1.0000000000000000e-03
ITEM: ATOMS id id mass q x y z
1 1 2.83952e-25 1.60218e-19 1.30903e-08 -8.31861e-08 -1.19749e-05
2 2 2.83952e-25 1.60218e-19 -2.15149e-07 6.2312e-08 -6.29079e-06
3 3 2.83952e-25 1.60218e-19 1.68118e-07 6.25699e-08 -5.6554e-07
4 4 2.83952e-25 1.60218e-19 -1.66927e-07 -2.88433e-08 5.57898e-06
5 5 2.29154e-25 1.60218e-19 3.10812e-07 3.21393e-07 1.24009e-05
ITEM: TIMESTEP
600
ITEM: NUMBER OF ATOMS
5
ITEM: BOX BOUNDS mm mm mm
-1.0000000000000000e-03 1.0000000000000000e-03
-1.0000000000000000e-03 1.0000000000000000e-03
-1.0000000000000000e-03 1.0000000000000000e-03
ITEM: ATOMS id id mass q x y z
1 1 2.83952e-25 1.60218e-19 4.54015e-08 -5.11499e-08 -1.56741e-05
2 2 2.83952e-25 1.60218e-19 -2.14679e-07 4.40276e-08 -7.36588e-06
3 3 2.83952e-25 1.60218e-19 2.55829e-07 4.52402e-08 1.18237e-08
4 4 2.83952e-25 1.60218e-19 -1.71895e-07 -4.25487e-08 7.56524e-06
5 5 2.29154e-25 1.60218e-19 -2.98746e-07 -3.11805e-07 1.61001e-05
ITEM: TIMESTEP
700
ITEM: NUMBER OF ATOMS
5
ITEM: BOX BOUNDS mm mm mm
-1.0000000000000000e-03 1.0000000000000000e-03
-1.0000000000000000e-03 1.0000000000000000e-03
-1.0000000000000000e-03 1.0000000000000000e-03
ITEM: ATOMS id id mass q x y z
1 1 2.83952e-25 1.60218e-19 -1.98371e-08 8.81347e-08 -1.92882e-05
2 2 2.83952e-25 1.60218e-19 2.39778e-07 -6.70762e-08 -8.38387e-06
3 3 2.83952e-25 1.60218e-19 -2.05507e-07 -6.75729e-08 6.76434e-07
4 4 2.83952e-25 1.60218e-19 1.93333e-07 3.94883e-08 9.39877e-06
5 5 2.29154e-25 1.60218e-19 2.03656e-07 2.12727e-07 1.94489e-05
ITEM: TIMESTEP
800
ITEM: NUMBER OF ATOMS
5
ITEM: BOX BOUNDS mm mm mm
-1.0000000000000000e-03 1.0000000000000000e-03
-1.0000000000000000e-03 1.0000000000000000e-03
-1.0000000000000000e-03 1.0000000000000000e-03
ITEM: ATOMS id id mass q x y z
1 1 2.83952e-25 1.60218e-19 -3.46992e-08 1.1351e-08 -2.10147e-05
2 2 2.83952e-25 1.60218e-19 1.03379e-07 -1.372e-08 -8.9826e-06
3 3 2.83952e-25 1.60218e-19 -1.6019e-07 -1.54081e-08 9.93313e-07
4 4 2.83952e-25 1.60218e-19 8.29643e-08 2.3188e-08 1.04561e-05
5 5 2.29154e-25 1.60218e-19 -6.06548e-08 -6.26595e-08 2.08691e-05
ITEM: TIMESTEP
900
ITEM: NUMBER OF ATOMS
5
ITEM: BOX BOUNDS mm mm mm
-1.0000000000000000e-03 1.0000000000000000e-03
-1.0000000000000000e-03 1.0000000000000000e-03
-1.0000000000000000e-03 1.0000000000000000e-03
ITEM: ATOMS id id mass q x y z
1 1 2.83952e-25 1.60218e-19 2.99921e-08 -8.08767e-08 -2.04942e-05
2 2 2.83952e-25 1.60218e-19 -2.43947e-07 6.35242e-08 -8.95065e-06
3 3 2.83952e-25 1.60218e-19 2.33128e-07 6.40822e-08 9.02801e-07
4 4 2.83952e-25 1.60218e-19 -1.95173e-07 -4.22958e-08 1.04035e-05
5 5 2.29154e-25 1.60218e-19 -8.20851e-08 -8.66166e-08 2.01079e-05
ITEM: TIMESTEP
1000
ITEM: NUMBER OF ATOMS
5
ITEM: BOX BOUNDS mm mm mm
-1.0000000000000000e-03 1.0000000000000000e-03
-1.0000000000000000e-03 1.0000000000000000e-03
-1.0000000000000000e-03 1.0000000000000000e-03
ITEM: ATOMS id id mass q x y z
1 1 2.83952e-25 1.60218e-19 2.09765e-08 2.09125e-08 -1.82156e-05
2 2 2.83952e-25 1.60218e-19 -3.26521e-09 -1.18111e-08 -8.3404e-06
3 3 2.83952e-25 1.60218e-19 6.3207e-08 -9.87133e-09 5.06214e-07
4 4 2.83952e-25 1.60218e-19 -4.46269e-09 -5.16725e-09 9.21769e-06
5 5 2.29154e-25 1.60218e-19 1.824e-07 1.9018e-07 1.78741e-05
ITEM: TIMESTEP
1100
ITEM: NUMBER OF ATOMS
5
ITEM: BOX BOUNDS mm mm mm
-1.0000000000000000e-03 1.0000000000000000e-03
-1.0000000000000000e-03 1.0000000000000000e-03
-1.0000000000000000e-03 1.0000000000000000e-03
ITEM: ATOMS id id mass q x y z
1 1 2.83952e-25 1.60218e-19 -3.46228e-08 6.2799e-08 -1.53126e-05
2 2 2.83952e-25 1.60218e-19 2.12435e-07 -5.14505e-08 -7.40586e-06
3 3 2.83952e-25 1.60218e-19 -2.26174e-07 -5.23321e-08 -3.11703e-08
4 4 2.83952e-25 1.60218e-19 1.68542e-07 3.71478e-08 7.31782e-06
5 5 2.29154e-25 1.60218e-19 -2.15852e-07 -2.23687e-07 1.53947e-05
ITEM: TIMESTEP
1200
ITEM: NUMBER OF ATOMS
5
ITEM: BOX BOUNDS mm mm mm
-1.0000000000000000e-03 1.0000000000000000e-03
-1.0000000000000000e-03 1.0000000000000000e-03
-1.0000000000000000e-03 1.0000000000000000e-03
ITEM: ATOMS id id mass q x y z
1 1 2.83952e-25 1.60218e-19 -1.19472e-08 -3.92274e-08 -1.33782e-05
2 2 2.83952e-25 1.60218e-19 -5.51281e-08 2.69458e-08 -6.59716e-06
3 3 2.83952e-25 1.60218e-19 -1.05781e-09 2.54575e-08 -4.76845e-07
4 4 2.83952e-25 1.60218e-19 -4.00089e-08 -2.98353e-09 5.8169e-06
5 5 2.29154e-25 1.60218e-19 1.80475e-07 1.87367e-07 1.37663e-05
ITEM: TIMESTEP
1300
ITEM: NUMBER OF ATOMS
5
ITEM: BOX BOUNDS mm mm mm
-1.0000000000000000e-03 1.0000000000000000e-03
-1.0000000000000000e-03 1.0000000000000000e-03
-1.0000000000000000e-03 1.0000000000000000e-03
ITEM: ATOMS id id mass q x y z
1 1 2.83952e-25 1.60218e-19 3.7132e-08 -4.26568e-08 -1.35809e-05
2 2 2.83952e-25 1.60218e-19 -1.69411e-07 3.74719e-08 -6.59924e-06
3 3 2.83952e-25 1.60218e-19 2.04252e-07 3.7334e-08 -4.75767e-07
4 4 2.83952e-25 1.60218e-19 -1.36302e-07 -3.50719e-08 5.88099e-06
5 5 2.29154e-25 1.60218e-19 -9.71726e-08 -1.01907e-07 1.35541e-05
ITEM: TIMESTEP
1400
ITEM: NUMBER OF ATOMS
5
ITEM: BOX BOUNDS mm mm mm
-1.0000000000000000e-03 1.0000000000000000e-03
-1.0000000000000000e-03 1.0000000000000000e-03
-1.0000000000000000e-03 1.0000000000000000e-03
ITEM: ATOMS id id mass q x y z
1 1 2.83952e-25 1.60218e-19 4.32475e-09 4.69307e-08 -1.54547e-05
2 2 2.83952e-25 1.60218e-19 8.11344e-08 -3.40077e-08 -7.41303e-06
3 3 2.83952e-25 1.60218e-19 -3.31725e-08 -3.17851e-08 -9.784e-08
4 4 2.83952e-25 1.60218e-19 6.49237e-08 1.14537e-08 7.10776e-06
5 5 2.29154e-25 1.60218e-19 -1.43484e-09 -1.08705e-09 1.48037e-05
ITEM: TIMESTEP
1500
ITEM: NUMBER OF ATOMS
5
ITEM: BOX BOUNDS mm mm mm
-1.0000000000000000e-03 1.0000000000000000e-03
-1.0000000000000000e-03 1.0000000000000000e-03
-1.0000000000000000e-03 1.0000000000000000e-03
ITEM: ATOMS id id mass q x y z
1 1 2.83952e-25 1.60218e-19 -3.61261e-08 2.09991e-08 -1.75666e-05
2 2 2.83952e-25 1.60218e-19 1.20859e-07 -2.17271e-08 -8.25374e-06
3 3 2.83952e-25 1.60218e-19 -1.72359e-07 -2.19129e-08 1.68776e-07
4 4 2.83952e-25 1.60218e-19 9.77472e-08 2.77967e-08 8.26975e-06
5 5 2.29154e-25 1.60218e-19 8.665e-08 9.08315e-08 1.68226e-05
ITEM: TIMESTEP
1600
ITEM: NUMBER OF ATOMS
5
ITEM: BOX BOUNDS mm mm mm
-1.0000000000000000e-03 1.0000000000000000e-03
-1.0000000000000000e-03 1.0000000000000000e-03
-1.0000000000000000e-03 1.0000000000000000e-03
ITEM: ATOMS id id mass q x y z
1 1 2.83952e-25 1.60218e-19 7.66723e-09 -4.81242e-08 -1.88028e-05
2 2 2.83952e-25 1.60218e-19 -1.07026e-07 3.71144e-08 -8.681e-06
3 3 2.83952e-25 1.60218e-19 7.99771e-08 3.45941e-08 1.81539e-07
4 4 2.83952e-25 1.60218e-19 -8.45564e-08 -1.87488e-08 8.83685e-06
5 5 2.29154e-25 1.60218e-19 -1.37017e-07 -1.43126e-07 1.8393e-05
ITEM: TIMESTEP
1700
ITEM: NUMBER OF ATOMS
5
ITEM: BOX BOUNDS mm mm mm
-1.0000000000000000e-03 1.0000000000000000e-03
-1.0000000000000000e-03 1.0000000000000000e-03
-1.0000000000000000e-03 1.0000000000000000e-03
ITEM: ATOMS id id mass q x y z
1 1 2.83952e-25 1.60218e-19 3.00532e-08 -4.1745e-10 -1.87438e-05
2 2 2.83952e-25 1.60218e-19 -6.82544e-08 5.56256e-09 -8.63826e-06
3 3 2.83952e-25 1.60218e-19 1.26607e-07 6.74872e-09 5.392e-08
4 4 2.83952e-25 1.60218e-19 -5.59203e-08 -1.77872e-08 8.80162e-06
5 5 2.29154e-25 1.60218e-19 1.40667e-07 1.46212e-07 1.86851e-05
ITEM: TIMESTEP
1800
ITEM: NUMBER OF ATOMS
5
ITEM: BOX BOUNDS mm mm mm
-1.0000000000000000e-03 1.0000000000000000e-03
-1.0000000000000000e-03 1.0000000000000000e-03
-1.0000000000000000e-03 1.0000000000000000e-03
ITEM: ATOMS id id mass q x y z
1 1 2.83952e-25 1.60218e-19 -1.74119e-08 4.19189e-08 -1.7581e-05
2 2 2.83952e-25 1.60218e-19 1.14083e-07 -3.44286e-08 -8.24972e-06
3 3 2.83952e-25 1.60218e-19 -1.10852e-07 -3.22309e-08 -5.3996e-08
4 4 2.83952e-25 1.60218e-19 8.98709e-08 2.17707e-08 8.31088e-06
5 5 2.29154e-25 1.60218e-19 -1.01569e-07 -1.05122e-07 1.76652e-05
ITEM: TIMESTEP
1900
ITEM: NUMBER OF ATOMS
5
ITEM: BOX BOUNDS mm mm mm
-1.0000000000000000e-03 1.0000000000000000e-03
-1.0000000000000000e-03 1.0000000000000000e-03
-1.0000000000000000e-03 1.0000000000000000e-03
ITEM: ATOMS id id mass q x y z
1 1 2.83952e-25 1.60218e-19 -2.16958e-08 -1.47398e-08 -1.5964e-05
2 2 2.83952e-25 1.60218e-19 2.31206e-08 7.22148e-09 -7.6813e-06
3 3 2.83952e-25 1.60218e-19 -7.86089e-08 5.39659e-09 -6.31045e-08
4 4 2.83952e-25 1.60218e-19 2.04839e-08 9.29506e-09 7.58357e-06
5 5 2.29154e-25 1.60218e-19 3.69693e-08 3.82767e-08 1.59936e-05
ITEM: TIMESTEP
2000
ITEM: NUMBER OF ATOMS
5
ITEM: BOX BOUNDS mm mm mm
-1.0000000000000000e-03 1.0000000000000000e-03
-1.0000000000000000e-03 1.0000000000000000e-03
-1.0000000000000000e-03 1.0000000000000000e-03
ITEM: ATOMS id id mass q x y z
1 1 2.83952e-25 1.60218e-19 2.29401e-08 -3.13268e-08 -1.47543e-05
2 2 2.83952e-25 1.60218e-19 -1.03807e-07 2.78153e-08 -7.09442e-06
3 3 2.83952e-25 1.60218e-19 1.20722e-07 2.58415e-08 -3.9706e-08
4 4 2.83952e-25 1.60218e-19 -8.24186e-08 -2.22649e-08 6.9197e-06
5 5 2.29154e-25 1.60218e-19 2.96518e-08 3.04912e-08 1.46949e-05
ITEM: TIMESTEP
2100
ITEM: NUMBER OF ATOMS
5
ITEM: BOX BOUNDS mm mm mm
-1.0000000000000000e-03 1.0000000000000000e-03
-1.0000000000000000e-03 1.0000000000000000e-03
-1.0000000000000000e-03 1.0000000000000000e-03
ITEM: ATOMS id id mass q x y z
1 1 2.83952e-25 1.60218e-19 1.37056e-08 2.31089e-08 -1.4533e-05
2 2 2.83952e-25 1.60218e-19 6.6141e-09 -1.50822e-08 -6.79594e-06
3 3 2.83952e-25 1.60218e-19 4.07575e-08 -1.26302e-08 -6.33347e-08
4 4 2.83952e-25 1.60218e-19 2.47669e-09 -2.8967e-09 6.70283e-06
5 5 2.29154e-25 1.60218e-19 -7.78974e-08 -8.0994e-08 1.45173e-05
ITEM: TIMESTEP
2200
ITEM: NUMBER OF ATOMS
5
ITEM: BOX BOUNDS mm mm mm
-1.0000000000000000e-03 1.0000000000000000e-03
-1.0000000000000000e-03 1.0000000000000000e-03
-1.0000000000000000e-03 1.0000000000000000e-03
ITEM: ATOMS id id mass q x y z
1 1 2.83952e-25 1.60218e-19 -2.52796e-08 1.94439e-08 -1.52145e-05
2 2 2.83952e-25 1.60218e-19 8.55796e-08 -1.95764e-08 -7.09288e-06
3 3 2.83952e-25 1.60218e-19 -1.1721e-07 -1.78558e-08 -4.04814e-08
4 4 2.83952e-25 1.60218e-19 6.93814e-08 2.1706e-08 7.11366e-06
5 5 2.29154e-25 1.60218e-19 9.74572e-08 1.0173e-07 1.537e-05
ITEM: TIMESTEP
2300
ITEM: NUMBER OF ATOMS
5
ITEM: BOX BOUNDS mm mm mm
-1.0000000000000000e-03 1.0000000000000000e-03
-1.0000000000000000e-03 1.0000000000000000e-03
-1.0000000000000000e-03 1.0000000000000000e-03
ITEM: ATOMS id id mass q x y z
1 1 2.83952e-25 1.60218e-19 -4.84178e-09 -2.65534e-08 -1.62861e-05
2 2 2.83952e-25 1.60218e-19 -2.74369e-08 1.94216e-08 -7.72725e-06
3 3 2.83952e-25 1.60218e-19 -6.71773e-09 1.61265e-08 6.46184e-08
4 4 2.83952e-25 1.60218e-19 -2.06386e-08 -4.47696e-09 7.84723e-06
5 5 2.29154e-25 1.60218e-19 -8.68197e-08 -9.03949e-08 1.65699e-05
ITEM: TIMESTEP
2400
ITEM: NUMBER OF ATOMS
5
ITEM: BOX BOUNDS mm mm mm
-1.0000000000000000e-03 1.0000000000000000e-03
-1.0000000000000000e-03 1.0000000000000000e-03
-1.0000000000000000e-03 1.0000000000000000e-03
ITEM: ATOMS id id mass q x y z
1 1 2.83952e-25 1.60218e-19 2.45053e-08 -7.53084e-09 -1.71931e-05
2 2 2.83952e-25 1.60218e-19 -6.43487e-08 1.06138e-08 -8.17115e-06
3 3 2.83952e-25 1.60218e-19 1.05433e-07 9.8875e-09 1.54275e-07
4 4 2.83952e-25 1.60218e-19 -5.2044e-08 -1.71955e-08 8.42054e-06
5 5 2.29154e-25 1.60218e-19 5.21547e-08 5.39053e-08 1.74367e-05
ITEM: TIMESTEP
2500
ITEM: NUMBER OF ATOMS
5
ITEM: BOX BOUNDS mm mm mm
-1.0000000000000000e-03 1.0000000000000000e-03
-1.0000000000000000e-03 1.0000000000000000e-03
-1.0000000000000000e-03 1.0000000000000000e-03
ITEM: ATOMS id id mass q x y z
1 1 2.83952e-25 1.60218e-19 -3.86107e-09 2.56365e-08 -1.75429e-05
2 2 2.83952e-25 1.60218e-19 4.27375e-08 -2.06239e-08 -8.20114e-06
3 3 2.83952e-25 1.60218e-19 -2.65618e-08 -1.71853e-08 1.7976e-07
4 4 2.83952e-25 1.60218e-19 3.2678e-08 9.12092e-09 8.54116e-06
5 5 2.29154e-25 1.60218e-19 -6.18794e-09 -6.06439e-09 1.76095e-05
ITEM: TIMESTEP
2600
ITEM: NUMBER OF ATOMS
5
ITEM: BOX BOUNDS mm mm mm
-1.0000000000000000e-03 1.0000000000000000e-03
-1.0000000000000000e-03 1.0000000000000000e-03
-1.0000000000000000e-03 1.0000000000000000e-03
ITEM: ATOMS id id mass q x y z
1 1 2.83952e-25 1.60218e-19 -2.06473e-08 -2.72402e-09 -1.72197e-05
2 2 2.83952e-25 1.60218e-19 4.16715e-08 -2.05267e-09 -7.92837e-06
3 3 2.83952e-25 1.60218e-19 -8.4776e-08 -2.48446e-09 1.4811e-07
4 4 2.83952e-25 1.60218e-19 3.45007e-08 1.23331e-08 8.20816e-06
5 5 2.29154e-25 1.60218e-19 -3.58467e-08 -3.73524e-08 1.71046e-05
ITEM: TIMESTEP
2700
ITEM: NUMBER OF ATOMS
5
ITEM: BOX BOUNDS mm mm mm
-1.0000000000000000e-03 1.0000000000000000e-03
-1.0000000000000000e-03 1.0000000000000000e-03
-1.0000000000000000e-03 1.0000000000000000e-03
ITEM: ATOMS id id mass q x y z
1 1 2.83952e-25 1.60218e-19 1.05608e-08 -2.1224e-08 -1.64174e-05
2 2 2.83952e-25 1.60218e-19 -4.87144e-08 1.87601e-08 -7.60145e-06
3 3 2.83952e-25 1.60218e-19 4.92786e-08 1.55181e-08 6.37206e-08
4 4 2.83952e-25 1.60218e-19 -3.74843e-08 -1.17877e-08 7.65798e-06
5 5 2.29154e-25 1.60218e-19 6.15381e-08 6.38967e-08 1.624e-05
ITEM: TIMESTEP
2800
ITEM: NUMBER OF ATOMS
5
ITEM: BOX BOUNDS mm mm mm
-1.0000000000000000e-03 1.0000000000000000e-03
-1.0000000000000000e-03 1.0000000000000000e-03
-1.0000000000000000e-03 1.0000000000000000e-03
ITEM: ATOMS id id mass q x y z
1 1 2.83952e-25 1.60218e-19 1.50586e-08 9.82248e-09 -1.55796e-05
2 2 2.83952e-25 1.60218e-19 -2.17767e-08 -4.58127e-09 -7.40642e-06
3 3 2.83952e-25 1.60218e-19 6.09894e-08 -3.09049e-09 -7.52806e-08
4 4 2.83952e-25 1.60218e-19 -1.9672e-08 -7.97229e-09 7.21028e-06
5 5 2.29154e-25 1.60218e-19 -6.54179e-08 -6.80631e-08 1.548e-05
ITEM: TIMESTEP
2900
ITEM: NUMBER OF ATOMS
5
ITEM: BOX BOUNDS mm mm mm
-1.0000000000000000e-03 1.0000000000000000e-03
-1.0000000000000000e-03 1.0000000000000000e-03
-1.0000000000000000e-03 1.0000000000000000e-03
ITEM: ATOMS id id mass q x y z
1 1 2.83952e-25 1.60218e-19 -1.43508e-08 1.50315e-08 -1.52039e-05
2 2 2.83952e-25 1.60218e-19 4.67279e-08 -1.49408e-08 -7.36789e-06
3 3 2.83952e-25 1.60218e-19 -6.02793e-08 -1.19765e-08 -2.0121e-07
4 4 2.83952e-25 1.60218e-19 3.72058e-08 1.3624e-08 7.05452e-06
5 5 2.29154e-25 1.60218e-19 4.98192e-08 5.1916e-08 1.52097e-05
ITEM: TIMESTEP
3000
ITEM: NUMBER OF ATOMS
5
ITEM: BOX BOUNDS mm mm mm
-1.0000000000000000e-03 1.0000000000000000e-03
-1.0000000000000000e-03 1.0000000000000000e-03
-1.0000000000000000e-03 1.0000000000000000e-03
ITEM: ATOMS id id mass q x y z
1 1 2.83952e-25 1.60218e-19 -9.17591e-09 -1.35048e-08 -1.54951e-05
2 2 2.83952e-25 1.60218e-19 6.84936e-09 8.71812e-09 -7.44628e-06
3 3 2.83952e-25 1.60218e-19 -3.80266e-08 6.32855e-09 -1.9301e-07
4 4 2.83952e-25 1.60218e-19 6.8558e-09 2.56847e-09 7.18395e-06
5 5 2.29154e-25 1.60218e-19 -2.21043e-08 -2.28935e-08 1.55063e-05
ITEM: TIMESTEP
3100
ITEM: NUMBER OF ATOMS
5
ITEM: BOX BOUNDS mm mm mm
-1.0000000000000000e-03 1.0000000000000000e-03
-1.0000000000000000e-03 1.0000000000000000e-03
-1.0000000000000000e-03 1.0000000000000000e-03
ITEM: ATOMS id id mass q x y z
1 1 2.83952e-25 1.60218e-19 1.57593e-08 -8.38842e-09 -1.61847e-05
2 2 2.83952e-25 1.60218e-19 -4.08793e-08 1.02868e-08 -7.62656e-06
3 3 2.83952e-25 1.60218e-19 6.36943e-08 8.04151e-09 -5.57131e-08
4 4 2.83952e-25 1.60218e-19 -3.27722e-08 -1.26972e-08 7.50866e-06
5 5 2.29154e-25 1.60218e-19 -8.55223e-09 -9.13125e-09 1.61086e-05
ITEM: TIMESTEP
3200
ITEM: NUMBER OF ATOMS
5
ITEM: BOX BOUNDS mm mm mm
-1.0000000000000000e-03 1.0000000000000000e-03
-1.0000000000000000e-03 1.0000000000000000e-03
-1.0000000000000000e-03 1.0000000000000000e-03
ITEM: ATOMS id id mass q x y z
1 1 2.83952e-25 1.60218e-19 2.97932e-09 1.45556e-08 -1.68067e-05
2 2 2.83952e-25 1.60218e-19 5.05063e-09 -1.10213e-08 -7.83739e-06
3 3 2.83952e-25 1.60218e-19 1.53072e-08 -7.95371e-09 7.422e-08
4 4 2.83952e-25 1.60218e-19 2.80413e-09 1.69574e-09 7.88443e-06
5 5 2.29154e-25 1.60218e-19 3.30085e-08 3.44594e-08 1.66488e-05
ITEM: TIMESTEP
3300
ITEM: NUMBER OF ATOMS
5
ITEM: BOX BOUNDS mm mm mm
-1.0000000000000000e-03 1.0000000000000000e-03
-1.0000000000000000e-03 1.0000000000000000e-03
-1.0000000000000000e-03 1.0000000000000000e-03
ITEM: ATOMS id id mass q x y z
1 1 2.83952e-25 1.60218e-19 -1.49796e-08 2.08441e-09 -1.70427e-05
2 2 2.83952e-25 1.60218e-19 3.3138e-08 -5.24534e-09 -7.95851e-06
3 3 2.83952e-25 1.60218e-19 -6.06183e-08 -4.13116e-09 1.1036e-07
4 4 2.83952e-25 1.60218e-19 2.67035e-08 1.05101e-08 8.11304e-06
5 5 2.29154e-25 1.60218e-19 -4.461e-08 -4.63505e-08 1.68888e-05
ITEM: TIMESTEP
3400
ITEM: NUMBER OF ATOMS
5
ITEM: BOX BOUNDS mm mm mm
-1.0000000000000000e-03 1.0000000000000000e-03
-1.0000000000000000e-03 1.0000000000000000e-03
-1.0000000000000000e-03 1.0000000000000000e-03
ITEM: ATOMS id id mass q x y z
1 1 2.83952e-25 1.60218e-19 2.50653e-09 -1.33163e-08 -1.68374e-05
2 2 2.83952e-25 1.60218e-19 -1.3686e-08 1.145e-08 -7.9162e-06
3 3 2.83952e-25 1.60218e-19 5.09448e-09 8.15149e-09 7.20473e-08
4 4 2.83952e-25 1.60218e-19 -9.40778e-09 -4.57642e-09 8.05872e-06
5 5 2.29154e-25 1.60218e-19 4.13666e-08 4.29415e-08 1.67845e-05
ITEM: TIMESTEP
3500
ITEM: NUMBER OF ATOMS
5
ITEM: BOX BOUNDS mm mm mm
-1.0000000000000000e-03 1.0000000000000000e-03
-1.0000000000000000e-03 1.0000000000000000e-03
-1.0000000000000000e-03 1.0000000000000000e-03
ITEM: ATOMS id id mass q x y z
1 1 2.83952e-25 1.60218e-19 1.23936e-08 2.90503e-09 -1.63572e-05
2 2 2.83952e-25 1.60218e-19 -2.43385e-08 6.77061e-10 -7.73107e-06
3 3 2.83952e-25 1.60218e-19 5.17496e-08 6.66595e-10 1.35564e-08
4 4 2.83952e-25 1.60218e-19 -2.0439e-08 -8.19386e-09 7.77004e-06
5 5 2.29154e-25 1.60218e-19 -2.62847e-08 -2.73084e-08 1.64346e-05
ITEM: TIMESTEP
3600
ITEM: NUMBER OF ATOMS
5
ITEM: BOX BOUNDS mm mm mm
-1.0000000000000000e-03 1.0000000000000000e-03
-1.0000000000000000e-03 1.0000000000000000e-03
-1.0000000000000000e-03 1.0000000000000000e-03
ITEM: ATOMS id id mass q x y z
1 1 2.83952e-25 1.60218e-19 -6.35969e-09 1.04928e-08 -1.58759e-05
2 2 2.83952e-25 1.60218e-19 1.80913e-08 -1.02487e-08 -7.50931e-06
3 3 2.83952e-25 1.60218e-19 -1.97807e-08 -7.03222e-09 -3.05448e-08
4 4 2.83952e-25 1.60218e-19 1.35644e-08 6.93048e-09 7.46092e-06
5 5 2.29154e-25 1.60218e-19 5.60138e-09 5.78413e-09 1.60137e-05
ITEM: TIMESTEP
3700
ITEM: NUMBER OF ATOMS
5
ITEM: BOX BOUNDS mm mm mm
-1.0000000000000000e-03 1.0000000000000000e-03
-1.0000000000000000e-03 1.0000000000000000e-03
-1.0000000000000000e-03 1.0000000000000000e-03
ITEM: ATOMS id id mass q x y z
1 1 2.83952e-25 1.60218e-19 -8.86095e-09 -6.11505e-09 -1.56322e-05
2 2 2.83952e-25 1.60218e-19 1.60759e-08 2.76181e-09 -7.38478e-06
3 3 2.83952e-25 1.60218e-19 -3.99412e-08 1.74759e-09 -4.21214e-08
4 4 2.83952e-25 1.60218e-19 1.3937e-08 5.09874e-09 7.33631e-06
5 5 2.29154e-25 1.60218e-19 1.38722e-08 1.45332e-08 1.57249e-05
ITEM: TIMESTEP
3800
ITEM: NUMBER OF ATOMS
5
ITEM: BOX BOUNDS mm mm mm
-1.0000000000000000e-03 1.0000000000000000e-03
-1.0000000000000000e-03 1.0000000000000000e-03
-1.0000000000000000e-03 1.0000000000000000e-03
ITEM: ATOMS id id mass q x y z
1 1 2.83952e-25 1.60218e-19 8.48472e-09 -6.95899e-09 -1.57151e-05
2 2 2.83952e-25 1.60218e-19 -1.91911e-08 8.07761e-09 -7.42101e-06
3 3 2.83952e-25 1.60218e-19 2.85678e-08 5.25193e-09 -1.23999e-08
4 4 2.83952e-25 1.60218e-19 -1.49852e-08 -7.92927e-09 7.422e-06
5 5 2.29154e-25 1.60218e-19 -2.68164e-08 -2.79774e-08 1.57271e-05
ITEM: TIMESTEP
3900
ITEM: NUMBER OF ATOMS
5
ITEM: BOX BOUNDS mm mm mm
-1.0000000000000000e-03 1.0000000000000000e-03
-1.0000000000000000e-03 1.0000000000000000e-03
-1.0000000000000000e-03 1.0000000000000000e-03
ITEM: ATOMS id id mass q x y z
1 1 2.83952e-25 1.60218e-19 5.01292e-09 7.65002e-09 -1.60361e-05
2 2 2.83952e-25 1.60218e-19 -8.93631e-09 -5.02522e-09 -7.56314e-06
3 3 2.83952e-25 1.60218e-19 2.70193e-08 -3.12957e-09 3.19509e-08
4 4 2.83952e-25 1.60218e-19 -7.97434e-09 -1.80519e-09 7.60097e-06
5 5 2.29154e-25 1.60218e-19 3.03684e-08 3.15711e-08 1.60209e-05
ITEM: TIMESTEP
4000
ITEM: NUMBER OF ATOMS
5
ITEM: BOX BOUNDS mm mm mm
-1.0000000000000000e-03 1.0000000000000000e-03
-1.0000000000000000e-03 1.0000000000000000e-03
-1.0000000000000000e-03 1.0000000000000000e-03
ITEM: ATOMS id id mass q x y z
1 1 2.83952e-25 1.60218e-19 -9.0912e-09 3.34516e-09 -1.63979e-05
2 2 2.83952e-25 1.60218e-19 1.85176e-08 -5.42734e-09 -7.70988e-06
3 3 2.83952e-25 1.60218e-19 -3.28889e-08 -3.36302e-09 4.73031e-08
4 4 2.83952e-25 1.60218e-19 1.44223e-08 7.35203e-09 7.76599e-06
5 5 2.29154e-25 1.60218e-19 -2.45116e-08 -2.54281e-08 1.64131e-05
ITEM: TIMESTEP
4100
ITEM: NUMBER OF ATOMS
5
ITEM: BOX BOUNDS mm mm mm
-1.0000000000000000e-03 1.0000000000000000e-03
-1.0000000000000000e-03 1.0000000000000000e-03
-1.0000000000000000e-03 1.0000000000000000e-03
ITEM: ATOMS id id mass q x y z
1 1 2.83952e-25 1.60218e-19 -1.31386e-09 -7.75385e-09 -1.66131e-05
2 2 2.83952e-25 1.60218e-19 2.82949e-09 6.2124e-09 -7.79839e-06
3 3 2.83952e-25 1.60218e-19 -1.38655e-08 3.75911e-09 2.9542e-08
4 4 2.83952e-25 1.60218e-19 3.36163e-09 -5.63447e-10 7.86288e-06
5 5 2.29154e-25 1.60218e-19 1.21048e-08 1.25413e-08 1.66551e-05
ITEM: TIMESTEP
4200
ITEM: NUMBER OF ATOMS
5
ITEM: BOX BOUNDS mm mm mm
-1.0000000000000000e-03 1.0000000000000000e-03
-1.0000000000000000e-03 1.0000000000000000e-03
-1.0000000000000000e-03 1.0000000000000000e-03
ITEM: ATOMS id id mass q x y z
1 1 2.83952e-25 1.60218e-19 8.36903e-09 -1.618e-10 -1.65981e-05
2 2 2.83952e-25 1.60218e-19 -1.65657e-08 2.65681e-09 -7.81071e-06
3 3 2.83952e-25 1.60218e-19 3.29149e-08 1.50717e-09 1.0165e-08
4 4 2.83952e-25 1.60218e-19 -1.33018e-08 -6.44036e-09 7.85986e-06
5 5 2.29154e-25 1.60218e-19 2.23226e-09 2.35735e-09 1.66213e-05
ITEM: TIMESTEP
4300
ITEM: NUMBER OF ATOMS
5
ITEM: BOX BOUNDS mm mm mm
-1.0000000000000000e-03 1.0000000000000000e-03
-1.0000000000000000e-03 1.0000000000000000e-03
-1.0000000000000000e-03 1.0000000000000000e-03
ITEM: ATOMS id id mass q x y z
1 1 2.83952e-25 1.60218e-19 -1.69659e-09 6.73942e-09 -1.63979e-05
2 2 2.83952e-25 1.60218e-19 1.89876e-09 -6.32823e-09 -7.74841e-06
3 3 2.83952e-25 1.60218e-19 2.22555e-09 -3.6378e-09 4.35165e-09
4 4 2.83952e-25 1.60218e-19 5.15785e-10 2.59364e-09 7.7525e-06
5 5 2.29154e-25 1.60218e-19 -1.39379e-08 -1.45469e-08 1.63696e-05
ITEM: TIMESTEP
4400
ITEM: NUMBER OF ATOMS
5
ITEM: BOX BOUNDS mm mm mm
-1.0000000000000000e-03 1.0000000000000000e-03
-1.0000000000000000e-03 1.0000000000000000e-03
-1.0000000000000000e-03 1.0000000000000000e-03
ITEM: ATOMS id id mass q x y z
1 1 2.83952e-25 1.60218e-19 -6.699e-09 -2.20622e-09 -1.61414e-05
2 2 2.83952e-25 1.60218e-19 1.37372e-08 -2.17344e-10 -7.63547e-06
3 3 2.83952e-25 1.60218e-19 -2.9422e-08 -1.31083e-12 -6.38025e-09
4 4 2.83952e-25 1.60218e-19 1.14366e-08 4.99833e-09 7.58934e-06
5 5 2.29154e-25 1.60218e-19 1.99951e-08 2.08356e-08 1.60738e-05
ITEM: TIMESTEP
4500
ITEM: NUMBER OF ATOMS
5
ITEM: BOX BOUNDS mm mm mm
-1.0000000000000000e-03 1.0000000000000000e-03
-1.0000000000000000e-03 1.0000000000000000e-03
-1.0000000000000000e-03 1.0000000000000000e-03
ITEM: ATOMS id id mass q x y z
1 1 2.83952e-25 1.60218e-19 3.70202e-09 -5.04206e-09 -1.59629e-05
2 2 2.83952e-25 1.60218e-19 -5.05e-09 5.6054e-09 -7.53631e-06
3 3 2.83952e-25 1.60218e-19 6.62104e-09 2.97154e-09 -3.44258e-08
4 4 2.83952e-25 1.60218e-19 -3.40023e-09 -4.10103e-09 7.46219e-06
5 5 2.29154e-25 1.60218e-19 -1.94804e-08 -2.02429e-08 1.58995e-05
ITEM: TIMESTEP
4600
ITEM: NUMBER OF ATOMS
5
ITEM: BOX BOUNDS mm mm mm
-1.0000000000000000e-03 1.0000000000000000e-03
-1.0000000000000000e-03 1.0000000000000000e-03
-1.0000000000000000e-03 1.0000000000000000e-03
ITEM: ATOMS id id mass q x y z
1 1 2.83952e-25 1.60218e-19 4.56725e-09 3.63419e-09 -1.59364e-05
2 2 2.83952e-25 1.60218e-19 -1.0604e-08 -1.62629e-09 -7.52411e-06
3 3 2.83952e-25 1.60218e-19 2.38064e-08 -9.62985e-10 -5.49918e-08
4 4 2.83952e-25 1.60218e-19 -8.88696e-09 -2.94606e-09 7.44586e-06
5 5 2.29154e-25 1.60218e-19 1.33594e-08 1.38404e-08 1.59121e-05
ITEM: TIMESTEP
4700
ITEM: NUMBER OF ATOMS
5
ITEM: BOX BOUNDS mm mm mm
-1.0000000000000000e-03 1.0000000000000000e-03
-1.0000000000000000e-03 1.0000000000000000e-03
-1.0000000000000000e-03 1.0000000000000000e-03
ITEM: ATOMS id id mass q x y z
1 1 2.83952e-25 1.60218e-19 -4.70815e-09 3.08363e-09 -1.60566e-05
2 2 2.83952e-25 1.60218e-19 6.88974e-09 -4.38503e-09 -7.60283e-06
3 3 2.83952e-25 1.60218e-19 -1.26125e-08 -2.12779e-09 -4.1513e-08
4 4 2.83952e-25 1.60218e-19 4.91945e-09 4.46588e-09 7.54072e-06
5 5 2.29154e-25 1.60218e-19 -4.06005e-09 -4.1873e-09 1.60686e-05
ITEM: TIMESTEP
4800
ITEM: NUMBER OF ATOMS
5
ITEM: BOX BOUNDS mm mm mm
-1.0000000000000000e-03 1.0000000000000000e-03
-1.0000000000000000e-03 1.0000000000000000e-03
-1.0000000000000000e-03 1.0000000000000000e-03
ITEM: ATOMS id id mass q x y z
1 1 2.83952e-25 1.60218e-19 -2.36116e-09 -4.18263e-09 -1.62513e-05
2 2 2.83952e-25 1.60218e-19 7.49423e-09 2.85441e-09 -7.69686e-06
3 3 2.83952e-25 1.60218e-19 -1.70531e-08 1.51199e-09 -5.65943e-09
4 4 2.83952e-25 1.60218e-19 6.55904e-09 1.20175e-09 7.67827e-06
5 5 2.29154e-25 1.60218e-19 -5.25317e-09 -5.47683e-09 1.62684e-05
ITEM: TIMESTEP
4900
ITEM: NUMBER OF ATOMS
5
ITEM: BOX BOUNDS mm mm mm
-1.0000000000000000e-03 1.0000000000000000e-03
-1.0000000000000000e-03 1.0000000000000000e-03
-1.0000000000000000e-03 1.0000000000000000e-03
ITEM: ATOMS id id mass q x y z
1 1 2.83952e-25 1.60218e-19 4.83231e-09 -1.20094e-09 -1.6414e-05
2 2 2.83952e-25 1.60218e-19 -7.85221e-09 2.90026e-09 -7.73692e-06
3 3 2.83952e-25 1.60218e-19 1.59909e-08 1.23193e-09 2.51707e-08
4 4 2.83952e-25 1.60218e-19 -5.85385e-09 -4.30689e-09 7.77603e-06
5 5 2.29154e-25 1.60218e-19 1.17643e-08 1.22589e-08 1.64113e-05
ITEM: TIMESTEP
5000
ITEM: NUMBER OF ATOMS
5
ITEM: BOX BOUNDS mm mm mm
-1.0000000000000000e-03 1.0000000000000000e-03
-1.0000000000000000e-03 1.0000000000000000e-03
-1.0000000000000000e-03 1.0000000000000000e-03
ITEM: ATOMS id id mass q x y z
1 1 2.83952e-25 1.60218e-19 3.88956e-10 4.00987e-09 -1.64567e-05
2 2 2.83952e-25 1.60218e-19 -4.51711e-09 -3.46036e-09 -7.71851e-06
3 3 2.83952e-25 1.60218e-19 1.00554e-08 -1.67381e-09 3.89444e-08
4 4 2.83952e-25 1.60218e-19 -4.34922e-09 2.61633e-10 7.79036e-06
5 5 2.29154e-25 1.60218e-19 -1.39302e-08 -1.45149e-08 1.64388e-05
ITEM: TIMESTEP
5100
ITEM: NUMBER OF ATOMS
5
ITEM: BOX BOUNDS mm mm mm
-1.0000000000000000e-03 1.0000000000000000e-03
-1.0000000000000000e-03 1.0000000000000000e-03
-1.0000000000000000e-03 1.0000000000000000e-03
ITEM: ATOMS id id mass q x y z
1 1 2.83952e-25 1.60218e-19 -4.26407e-09 -3.64895e-10 -1.63611e-05
2 2 2.83952e-25 1.60218e-19 8.01737e-09 -1.38455e-09 -7.6757e-06
3 3 2.83952e-25 1.60218e-19 -1.68608e-08 -4.11947e-10 3.50226e-08
4 4 2.83952e-25 1.60218e-19 6.33248e-09 3.83791e-09 7.73318e-06
5 5 2.29154e-25 1.60218e-19 1.17511e-08 1.2211e-08 1.63525e-05
ITEM: TIMESTEP
5200
ITEM: NUMBER OF ATOMS
5
ITEM: BOX BOUNDS mm mm mm
-1.0000000000000000e-03 1.0000000000000000e-03
-1.0000000000000000e-03 1.0000000000000000e-03
-1.0000000000000000e-03 1.0000000000000000e-03
ITEM: ATOMS id id mass q x y z
1 1 2.83952e-25 1.60218e-19 1.10826e-09 -3.31987e-09 -1.61911e-05
2 2 2.83952e-25 1.60218e-19 1.89793e-09 3.48022e-09 -7.63316e-06
3 3 2.83952e-25 1.60218e-19 -3.7714e-09 1.48998e-09 1.44541e-08
4 4 2.83952e-25 1.60218e-19 2.13169e-09 -1.59543e-09 7.64953e-06