ITEM: TIMESTEP
0
ITEM: NUMBER OF ATOMS
5
ITEM: BOX BOUNDS mm mm mm
-1.0000000000000000e-03 1.0000000000000000e-03
-1.0000000000000000e-03 1.0000000000000000e-03
-1.0000000000000000e-03 1.0000000000000000e-03
ITEM: ATOMS id id mass q x y z
1 1 2.83952e-25 1.60218e-19 2.64751e-07 2.84638e-07 -2.5e-05
2 2 2.83952e-25 1.60218e-19 1.80547e-07 4.43579e-07 -1.25e-05
3 3 2.83952e-25 1.60218e-19 3.02163e-07 -1.25672e-07 0
4 4 2.83952e-25 1.60218e-19 4.82477e-07 -1.8853e-07 1.25e-05
5 5 2.29154e-25 1.60218e-19 -1.45448e-07 3.29919e-07 2.5e-05
ITEM: TIMESTEP
100
ITEM: NUMBER OF ATOMS
5
ITEM: BOX BOUNDS mm mm mm
-1.0000000000000000e-03 1.0000000000000000e-03
-1.0000000000000000e-03 1.0000000000000000e-03
-1.0000000000000000e-03 1.0000000000000000e-03
ITEM: ATOMS id id mass q x y z
1 1 2.83952e-25 1.60218e-19 -5.10868e-08 -5.56593e-08 -2.35299e-05
2 2 2.83952e-25 1.60218e-19 -3.61087e-08 -8.25007e-08 -1.16151e-05
3 3 2.83952e-25 1.60218e-19 -5.87399e-08 2.18023e-08 -1.16752e-09
4 4 2.83952e-25 1.60218e-19 -9.03588e-08 3.46726e-08 1.16121e-05
5 5 2.29154e-25 1.60218e-19 1.13352e-07 -2.58949e-07 2.31899e-05
ITEM: TIMESTEP
200
ITEM: NUMBER OF ATOMS
5
ITEM: BOX BOUNDS mm mm mm
-1.0000000000000000e-03 1.0000000000000000e-03
-1.0000000000000000e-03 1.0000000000000000e-03
-1.0000000000000000e-03 1.0000000000000000e-03
ITEM: ATOMS id id mass q x y z
1 1 2.83952e-25 1.60218e-19 -2.09649e-07 -2.24769e-07 -1.97614e-05
2 2 2.83952e-25 1.60218e-19 -1.41714e-07 -3.54482e-07 -9.37162e-06
3 3 2.83952e-25 1.60218e-19 -2.38901e-07 1.02089e-07 -1.36511e-08
4 4 2.83952e-25 1.60218e-19 -3.85096e-07 1.51283e-07 9.29822e-06
5 5 2.29154e-25 1.60218e-19 -4.98381e-08 1.18729e-07 1.8709e-05
ITEM: TIMESTEP
300
ITEM: NUMBER OF ATOMS
5
ITEM: BOX BOUNDS mm mm mm
-1.0000000000000000e-03 1.0000000000000000e-03
-1.0000000000000000e-03 1.0000000000000000e-03
-1.0000000000000000e-03 1.0000000000000000e-03
ITEM: ATOMS id id mass q x y z
1 1 2.83952e-25 1.60218e-19 1.28236e-07 1.40196e-07 -1.51146e-05
2 2 2.83952e-25 1.60218e-19 9.24121e-08 2.01216e-07 -6.79273e-06
3 3 2.83952e-25 1.60218e-19 1.48105e-07 -4.99508e-08 -9.49388e-08
4 4 2.83952e-25 1.60218e-19 2.21615e-07 -8.44109e-08 6.40909e-06
5 5 2.29154e-25 1.60218e-19 -1.66461e-08 3.54615e-08 1.37463e-05
ITEM: TIMESTEP
400
ITEM: NUMBER OF ATOMS
5
ITEM: BOX BOUNDS mm mm mm
-1.0000000000000000e-03 1.0000000000000000e-03
-1.0000000000000000e-03 1.0000000000000000e-03
-1.0000000000000000e-03 1.0000000000000000e-03
ITEM: ATOMS id id mass q x y z
1 1 2.83952e-25 1.60218e-19 1.31602e-07 1.38103e-07 -1.16655e-05
2 2 2.83952e-25 1.60218e-19 7.94747e-08 2.50207e-07 -5.57577e-06
3 3 2.83952e-25 1.60218e-19 1.47591e-07 -8.61451e-08 -4.22753e-07
4 4 2.83952e-25 1.60218e-19 2.63994e-07 -1.10294e-07 4.71466e-06
5 5 2.29154e-25 1.60218e-19 6.07253e-08 -1.53714e-07 1.1109e-05
ITEM: TIMESTEP
500
ITEM: NUMBER OF ATOMS
5
ITEM: BOX BOUNDS mm mm mm
-1.0000000000000000e-03 1.0000000000000000e-03
-1.0000000000000000e-03 1.0000000000000000e-03
-1.0000000000000000e-03 1.0000000000000000e-03
ITEM: ATOMS id id mass q x y z
1 1 2.83952e-25 1.60218e-19 -1.61498e-07 -1.82596e-07 -1.20009e-05
2 2 2.83952e-25 1.60218e-19 -1.24856e-07 -2.29369e-07 -6.30424e-06
3 3 2.83952e-25 1.60218e-19 -1.91928e-07 4.46673e-08 -5.59541e-07
4 4 2.83952e-25 1.60218e-19 -2.71776e-07 1.08284e-07 5.59201e-06
5 5 2.29154e-25 1.60218e-19 -8.73423e-08 2.15718e-07 1.24251e-05
ITEM: TIMESTEP
600
ITEM: NUMBER OF ATOMS
5
ITEM: BOX BOUNDS mm mm mm
-1.0000000000000000e-03 1.0000000000000000e-03
-1.0000000000000000e-03 1.0000000000000000e-03
-1.0000000000000000e-03 1.0000000000000000e-03
ITEM: ATOMS id id mass q x y z
1 1 2.83952e-25 1.60218e-19 -5.13094e-08 -4.59848e-08 -1.57012e-05
2 2 2.83952e-25 1.60218e-19 -9.45339e-09 -1.54084e-07 -7.37023e-06
3 3 2.83952e-25 1.60218e-19 -5.21879e-08 7.67831e-08 1.16829e-08
4 4 2.83952e-25 1.60218e-19 -1.38436e-07 6.25848e-08 7.56118e-06
5 5 2.29154e-25 1.60218e-19 9.02141e-08 -2.1153e-07 1.61419e-05
ITEM: TIMESTEP
700
ITEM: NUMBER OF ATOMS
5
ITEM: BOX BOUNDS mm mm mm
-1.0000000000000000e-03 1.0000000000000000e-03
-1.0000000000000000e-03 1.0000000000000000e-03
-1.0000000000000000e-03 1.0000000000000000e-03
ITEM: ATOMS id id mass q x y z
1 1 2.83952e-25 1.60218e-19 1.59544e-07 1.80413e-07 -1.93016e-05
2 2 2.83952e-25 1.60218e-19 1.16986e-07 2.44357e-07 -8.38969e-06
3 3 2.83952e-25 1.60218e-19 1.89037e-07 -5.64458e-08 6.64585e-07
4 4 2.83952e-25 1.60218e-19 2.81941e-07 -1.14218e-07 9.40804e-06
5 5 2.29154e-25 1.60218e-19 -6.23211e-08 1.44423e-07 1.94713e-05
ITEM: TIMESTEP
800
ITEM: NUMBER OF ATOMS
5
ITEM: BOX BOUNDS mm mm mm
-1.0000000000000000e-03 1.0000000000000000e-03
-1.0000000000000000e-03 1.0000000000000000e-03
-1.0000000000000000e-03 1.0000000000000000e-03
ITEM: ATOMS id id mass q x y z
1 1 2.83952e-25 1.60218e-19 -1.94286e-08 -3.2982e-08 -2.10125e-05
2 2 2.83952e-25 1.60218e-19 -4.16842e-08 4.407e-08 -8.99347e-06
3 3 2.83952e-25 1.60218e-19 -3.10585e-08 -5.01274e-08 9.81968e-07
4 4 2.83952e-25 1.60218e-19 1.44354e-08 -1.39089e-08 1.04756e-05
5 5 2.29154e-25 1.60218e-19 1.72638e-08 -4.19218e-08 2.08631e-05
ITEM: TIMESTEP
900
ITEM: NUMBER OF ATOMS
5
ITEM: BOX BOUNDS mm mm mm
-1.0000000000000000e-03 1.0000000000000000e-03
-1.0000000000000000e-03 1.0000000000000000e-03
-1.0000000000000000e-03 1.0000000000000000e-03
ITEM: ATOMS id id mass q x y z
1 1 2.83952e-25 1.60218e-19 -1.30607e-07 -1.44246e-07 -2.04814e-05
2 2 2.83952e-25 1.60218e-19 -8.54446e-08 -2.27503e-07 -8.96245e-06
3 3 2.83952e-25 1.60218e-19 -1.5259e-07 6.67734e-08 9.02099e-07
4 4 2.83952e-25 1.60218e-19 -2.49672e-07 1.05356e-07 1.0414e-05
5 5 2.29154e-25 1.60218e-19 2.71179e-08 -5.96312e-08 2.00875e-05
ITEM: TIMESTEP
1000
ITEM: NUMBER OF ATOMS
5
ITEM: BOX BOUNDS mm mm mm
-1.0000000000000000e-03 1.0000000000000000e-03
-1.0000000000000000e-03 1.0000000000000000e-03
-1.0000000000000000e-03 1.0000000000000000e-03
ITEM: ATOMS id id mass q x y z
1 1 2.83952e-25 1.60218e-19 6.9233e-08 8.74294e-08 -1.82009e-05
2 2 2.83952e-25 1.60218e-19 7.28106e-08 4.64984e-08 -8.34444e-06
3 3 2.83952e-25 1.60218e-19 8.89986e-08 2.17057e-08 5.13628e-07
4 4 2.83952e-25 1.60218e-19 8.10658e-08 -2.61811e-08 9.20931e-06
5 5 2.29154e-25 1.60218e-19 -5.55696e-08 1.28963e-07 1.78565e-05
ITEM: TIMESTEP
1100
ITEM: NUMBER OF ATOMS
5
ITEM: BOX BOUNDS mm mm mm
-1.0000000000000000e-03 1.0000000000000000e-03
-1.0000000000000000e-03 1.0000000000000000e-03
-1.0000000000000000e-03 1.0000000000000000e-03
ITEM: ATOMS id id mass q x y z
1 1 2.83952e-25 1.60218e-19 8.55092e-08 9.10069e-08 -1.53049e-05
2 2 2.83952e-25 1.60218e-19 4.43427e-08 1.79757e-07 -7.39644e-06
3 3 2.83952e-25 1.60218e-19 9.76663e-08 -6.69134e-08 -2.93455e-08
4 4 2.83952e-25 1.60218e-19 1.87104e-07 -8.47971e-08 7.30145e-06
5 5 2.29154e-25 1.60218e-19 6.21984e-08 -1.50445e-07 1.53887e-05
ITEM: TIMESTEP
1200
ITEM: NUMBER OF ATOMS
5
ITEM: BOX BOUNDS mm mm mm
-1.0000000000000000e-03 1.0000000000000000e-03
-1.0000000000000000e-03 1.0000000000000000e-03
-1.0000000000000000e-03 1.0000000000000000e-03
ITEM: ATOMS id id mass q x y z
1 1 2.83952e-25 1.60218e-19 -9.35103e-08 -1.14891e-07 -1.33792e-05
2 2 2.83952e-25 1.60218e-19 -8.55465e-08 -9.78522e-08 -6.58978e-06
3 3 2.83952e-25 1.60218e-19 -1.18087e-07 -2.52464e-09 -4.84825e-07
4 4 2.83952e-25 1.60218e-19 -1.3638e-07 5.38116e-08 5.81475e-06
5 5 2.29154e-25 1.60218e-19 -5.19384e-08 1.26278e-07 1.37716e-05
ITEM: TIMESTEP
1300
ITEM: NUMBER OF ATOMS
5
ITEM: BOX BOUNDS mm mm mm
-1.0000000000000000e-03 1.0000000000000000e-03
-1.0000000000000000e-03 1.0000000000000000e-03
-1.0000000000000000e-03 1.0000000000000000e-03
ITEM: ATOMS id id mass q x y z
1 1 2.83952e-25 1.60218e-19 -3.67444e-08 -3.46926e-08 -1.3588e-05
2 2 2.83952e-25 1.60218e-19 -9.4609e-10 -1.24292e-07 -6.61567e-06
3 3 2.83952e-25 1.60218e-19 -3.89498e-08 6.31764e-08 -4.73898e-07
4 4 2.83952e-25 1.60218e-19 -1.13356e-07 5.76459e-08 5.89709e-06
5 5 2.29154e-25 1.60218e-19 3.02958e-08 -6.9625e-08 1.3564e-05
ITEM: TIMESTEP
1400
ITEM: NUMBER OF ATOMS
5
ITEM: BOX BOUNDS mm mm mm
-1.0000000000000000e-03 1.0000000000000000e-03
-1.0000000000000000e-03 1.0000000000000000e-03
-1.0000000000000000e-03 1.0000000000000000e-03
ITEM: ATOMS id id mass q x y z
1 1 2.83952e-25 1.60218e-19 9.46054e-08 1.17112e-07 -1.54707e-05
2 2 2.83952e-25 1.60218e-19 7.98898e-08 1.16777e-07 -7.4273e-06
3 3 2.83952e-25 1.60218e-19 1.20048e-07 -9.17865e-09 -9.07067e-08
4 4 2.83952e-25 1.60218e-19 1.54454e-07 -6.59431e-08 7.12434e-06
5 5 2.29154e-25 1.60218e-19 -1.3448e-09 -2.26244e-10 1.48162e-05
ITEM: TIMESTEP
1500
ITEM: NUMBER OF ATOMS
5
ITEM: BOX BOUNDS mm mm mm
-1.0000000000000000e-03 1.0000000000000000e-03
-1.0000000000000000e-03 1.0000000000000000e-03
-1.0000000000000000e-03 1.0000000000000000e-03
ITEM: ATOMS id id mass q x y z
1 1 2.83952e-25 1.60218e-19 -6.02828e-09 -1.6138e-08 -1.75856e-05
2 2 2.83952e-25 1.60218e-19 -3.38006e-08 6.68309e-08 -8.2492e-06
3 3 2.83952e-25 1.60218e-19 -1.36665e-08 -5.44075e-08 1.70407e-07
4 4 2.83952e-25 1.60218e-19 4.33317e-08 -2.97338e-08 8.27371e-06
5 5 2.29154e-25 1.60218e-19 -2.64036e-08 6.19278e-08 1.68378e-05
ITEM: TIMESTEP
1600
ITEM: NUMBER OF ATOMS
5
ITEM: BOX BOUNDS mm mm mm
-1.0000000000000000e-03 1.0000000000000000e-03
-1.0000000000000000e-03 1.0000000000000000e-03
-1.0000000000000000e-03 1.0000000000000000e-03
ITEM: ATOMS id id mass q x y z
1 1 2.83952e-25 1.60218e-19 -7.92221e-08 -9.68822e-08 -1.88133e-05
2 2 2.83952e-25 1.60218e-19 -5.7357e-08 -1.22596e-07 -8.66886e-06
3 3 2.83952e-25 1.60218e-19 -1.00099e-07 2.52194e-08 1.79069e-07
4 4 2.83952e-25 1.60218e-19 -1.48122e-07 6.86407e-08 8.83233e-06
5 5 2.29154e-25 1.60218e-19 4.18976e-08 -9.72369e-08 1.84025e-05
ITEM: TIMESTEP
1700
ITEM: NUMBER OF ATOMS
5
ITEM: BOX BOUNDS mm mm mm
-1.0000000000000000e-03 1.0000000000000000e-03
-1.0000000000000000e-03 1.0000000000000000e-03
-1.0000000000000000e-03 1.0000000000000000e-03
ITEM: ATOMS id id mass q x y z
1 1 2.83952e-25 1.60218e-19 3.69923e-08 5.31359e-08 -1.87395e-05
2 2 2.83952e-25 1.60218e-19 5.41758e-08 -1.3185e-08 -8.6333e-06
3 3 2.83952e-25 1.60218e-19 5.21732e-08 3.99668e-08 5.23401e-08
4 4 2.83952e-25 1.60218e-19 1.7577e-08 1.73136e-09 8.7974e-06
5 5 2.29154e-25 1.60218e-19 -4.16855e-08 9.86243e-08 1.86819e-05
ITEM: TIMESTEP
1800
ITEM: NUMBER OF ATOMS
5
ITEM: BOX BOUNDS mm mm mm
-1.0000000000000000e-03 1.0000000000000000e-03
-1.0000000000000000e-03 1.0000000000000000e-03
-1.0000000000000000e-03 1.0000000000000000e-03
ITEM: ATOMS id id mass q x y z
1 1 2.83952e-25 1.60218e-19 5.36255e-08 6.3903e-08 -1.75654e-05
2 2 2.83952e-25 1.60218e-19 2.84236e-08 1.09468e-07 -8.2553e-06
3 3 2.83952e-25 1.60218e-19 6.69478e-08 -3.58315e-08 -5.32269e-08
4 4 2.83952e-25 1.60218e-19 1.21198e-07 -6.1799e-08 8.31001e-06
5 5 2.29154e-25 1.60218e-19 2.88183e-08 -7.04144e-08 1.76521e-05
ITEM: TIMESTEP
1900
ITEM: NUMBER OF ATOMS
5
ITEM: BOX BOUNDS mm mm mm
-1.0000000000000000e-03 1.0000000000000000e-03
-1.0000000000000000e-03 1.0000000000000000e-03
-1.0000000000000000e-03 1.0000000000000000e-03
ITEM: ATOMS id id mass q x y z
1 1 2.83952e-25 1.60218e-19 -5.33782e-08 -7.2589e-08 -1.59491e-05
2 2 2.83952e-25 1.60218e-19 -6.05909e-08 -2.66666e-08 -7.68655e-06
3 3 2.83952e-25 1.60218e-19 -7.26284e-08 -2.43072e-08 -6.3701e-08
4 4 2.83952e-25 1.60218e-19 -5.99215e-08 2.10455e-08 7.58331e-06
5 5 2.29154e-25 1.60218e-19 -1.01032e-08 2.56429e-08 1.5981e-05
ITEM: TIMESTEP
2000
ITEM: NUMBER OF ATOMS
5
ITEM: BOX BOUNDS mm mm mm
-1.0000000000000000e-03 1.0000000000000000e-03
-1.0000000000000000e-03 1.0000000000000000e-03
-1.0000000000000000e-03 1.0000000000000000e-03
ITEM: ATOMS id id mass q x y z
1 1 2.83952e-25 1.60218e-19 -2.47962e-08 -2.7831e-08 -1.47523e-05
2 2 2.83952e-25 1.60218e-19 4.39284e-11 -8.36485e-08 -7.0894e-06
3 3 2.83952e-25 1.60218e-19 -3.01036e-08 3.96425e-08 -4.30421e-08
4 4 2.83952e-25 1.60218e-19 -8.25768e-08 4.80133e-08 6.91683e-06
5 5 2.29154e-25 1.60218e-19 -7.86155e-09 2.01035e-08 1.46922e-05
ITEM: TIMESTEP
2100
ITEM: NUMBER OF ATOMS
5
ITEM: BOX BOUNDS mm mm mm
-1.0000000000000000e-03 1.0000000000000000e-03
-1.0000000000000000e-03 1.0000000000000000e-03
-1.0000000000000000e-03 1.0000000000000000e-03
ITEM: ATOMS id id mass q x y z
1 1 2.83952e-25 1.60218e-19 5.56525e-08 7.5858e-08 -1.45422e-05
2 2 2.83952e-25 1.60218e-19 5.53831e-08 4.84321e-08 -6.79135e-06
3 3 2.83952e-25 1.60218e-19 7.62796e-08 1.09426e-08 -6.30927e-08
4 4 2.83952e-25 1.60218e-19 7.98061e-08 -3.52507e-08 6.7004e-06
5 5 2.29154e-25 1.60218e-19 2.20988e-08 -5.45054e-08 1.45242e-05
ITEM: TIMESTEP
2200
ITEM: NUMBER OF ATOMS
5
ITEM: BOX BOUNDS mm mm mm
-1.0000000000000000e-03 1.0000000000000000e-03
-1.0000000000000000e-03 1.0000000000000000e-03
-1.0000000000000000e-03 1.0000000000000000e-03
ITEM: ATOMS id id mass q x y z
1 1 2.83952e-25 1.60218e-19 -1.05707e-09 -4.93327e-09 -1.52245e-05
2 2 2.83952e-25 1.60218e-19 -2.35736e-08 5.47055e-08 -7.10022e-06
3 3 2.83952e-25 1.60218e-19 -3.29757e-09 -3.86641e-08 -3.66143e-08
4 4 2.83952e-25 1.60218e-19 4.23171e-08 -3.11848e-08 7.11917e-06
5 5 2.29154e-25 1.60218e-19 -2.92237e-08 6.9095e-08 1.53788e-05
ITEM: TIMESTEP
2300
ITEM: NUMBER OF ATOMS
5
ITEM: BOX BOUNDS mm mm mm
-1.0000000000000000e-03 1.0000000000000000e-03
-1.0000000000000000e-03 1.0000000000000000e-03
-1.0000000000000000e-03 1.0000000000000000e-03
ITEM: ATOMS id id mass q x y z
1 1 2.83952e-25 1.60218e-19 -4.73096e-08 -6.55582e-08 -1.62924e-05
2 2 2.83952e-25 1.60218e-19 -4.06554e-08 -5.74928e-08 -7.73791e-06
3 3 2.83952e-25 1.60218e-19 -6.60308e-08 1.07347e-09 6.47071e-08
4 4 2.83952e-25 1.60218e-19 -8.24425e-08 4.14479e-08 7.85875e-06
5 5 2.29154e-25 1.60218e-19 2.62601e-08 -6.12432e-08 1.65755e-05
ITEM: TIMESTEP
2400
ITEM: NUMBER OF ATOMS
5
ITEM: BOX BOUNDS mm mm mm
-1.0000000000000000e-03 1.0000000000000000e-03
-1.0000000000000000e-03 1.0000000000000000e-03
-1.0000000000000000e-03 1.0000000000000000e-03
ITEM: ATOMS id id mass q x y z
1 1 2.83952e-25 1.60218e-19 1.99656e-08 3.01542e-08 -1.71959e-05
2 2 2.83952e-25 1.60218e-19 3.80806e-08 -2.65006e-08 -8.17461e-06
3 3 2.83952e-25 1.60218e-19 2.88722e-08 3.4022e-08 1.5095e-07
4 4 2.83952e-25 1.60218e-19 -6.46347e-09 1.38511e-08 8.42674e-06
5 5 2.29154e-25 1.60218e-19 -1.50678e-08 3.60424e-08 1.74399e-05
ITEM: TIMESTEP
2500
ITEM: NUMBER OF ATOMS
5
ITEM: BOX BOUNDS mm mm mm
-1.0000000000000000e-03 1.0000000000000000e-03
-1.0000000000000000e-03 1.0000000000000000e-03
-1.0000000000000000e-03 1.0000000000000000e-03
ITEM: ATOMS id id mass q x y z
1 1 2.83952e-25 1.60218e-19 3.26502e-08 4.6073e-08 -1.75425e-05
2 2 2.83952e-25 1.60218e-19 2.08432e-08 5.74226e-08 -8.19693e-06
3 3 2.83952e-25 1.60218e-19 4.66309e-08 -1.22167e-08 1.78029e-07
4 4 2.83952e-25 1.60218e-19 7.29775e-08 -4.20178e-08 8.53631e-06
5 5 2.29154e-25 1.60218e-19 9.29999e-10 -3.62083e-09 1.76109e-05
ITEM: TIMESTEP
2600
ITEM: NUMBER OF ATOMS
5
ITEM: BOX BOUNDS mm mm mm
-1.0000000000000000e-03 1.0000000000000000e-03
-1.0000000000000000e-03 1.0000000000000000e-03
-1.0000000000000000e-03 1.0000000000000000e-03
ITEM: ATOMS id id mass q x y z
1 1 2.83952e-25 1.60218e-19 -3.03815e-08 -4.47893e-08 -1.72156e-05
2 2 2.83952e-25 1.60218e-19 -4.26629e-08 2.43752e-09 -7.92242e-06
3 3 2.83952e-25 1.60218e-19 -4.37896e-08 -2.59838e-08 1.49325e-07
4 4 2.83952e-25 1.60218e-19 -2.12859e-08 2.7489e-09 8.19873e-06
5 5 2.29154e-25 1.60218e-19 1.09525e-08 -2.52737e-08 1.71016e-05
ITEM: TIMESTEP
2700
ITEM: NUMBER OF ATOMS
5
ITEM: BOX BOUNDS mm mm mm
-1.0000000000000000e-03 1.0000000000000000e-03
-1.0000000000000000e-03 1.0000000000000000e-03
-1.0000000000000000e-03 1.0000000000000000e-03
ITEM: ATOMS id id mass q x y z
1 1 2.83952e-25 1.60218e-19 -1.58267e-08 -2.30462e-08 -1.6411e-05
2 2 2.83952e-25 1.60218e-19 -1.19739e-09 -4.90725e-08 -7.59903e-06
3 3 2.83952e-25 1.60218e-19 -2.37834e-08 1.935e-08 6.46465e-08
4 4 2.83952e-25 1.60218e-19 -5.46626e-08 3.66997e-08 7.65442e-06
5 5 2.29154e-25 1.60218e-19 -1.77083e-08 4.28618e-08 1.62319e-05
ITEM: TIMESTEP
2800
ITEM: NUMBER OF ATOMS
5
ITEM: BOX BOUNDS mm mm mm
-1.0000000000000000e-03 1.0000000000000000e-03
-1.0000000000000000e-03 1.0000000000000000e-03
-1.0000000000000000e-03 1.0000000000000000e-03
ITEM: ATOMS id id mass q x y z
1 1 2.83952e-25 1.60218e-19 3.25116e-08 4.86796e-08 -1.55743e-05
2 2 2.83952e-25 1.60218e-19 3.89973e-08 1.40977e-08 -7.40775e-06
3 3 2.83952e-25 1.60218e-19 4.79326e-08 1.68182e-08 -7.64122e-08
4 4 2.83952e-25 1.60218e-19 3.78938e-08 -1.55747e-08 7.21365e-06
5 5 2.29154e-25 1.60218e-19 1.8895e-08 -4.58998e-08 1.54727e-05
ITEM: TIMESTEP
2900
ITEM: NUMBER OF ATOMS
5
ITEM: BOX BOUNDS mm mm mm
-1.0000000000000000e-03 1.0000000000000000e-03
-1.0000000000000000e-03 1.0000000000000000e-03
-1.0000000000000000e-03 1.0000000000000000e-03
ITEM: ATOMS id id mass q x y z
1 1 2.83952e-25 1.60218e-19 3.73623e-10 1.61623e-09 -1.5204e-05
2 2 2.83952e-25 1.60218e-19 -1.48781e-08 3.60689e-08 -7.36947e-06
3 3 2.83952e-25 1.60218e-19 2.3316e-09 -2.2205e-08 -2.01694e-07
4 4 2.83952e-25 1.60218e-19 3.27334e-08 -2.72471e-08 7.05679e-06
5 5 2.29154e-25 1.60218e-19 -1.49626e-08 3.53184e-08 1.52107e-05
ITEM: TIMESTEP
3000
ITEM: NUMBER OF ATOMS
5
ITEM: BOX BOUNDS mm mm mm
-1.0000000000000000e-03 1.0000000000000000e-03
-1.0000000000000000e-03 1.0000000000000000e-03
-1.0000000000000000e-03 1.0000000000000000e-03
ITEM: ATOMS id id mass q x y z
1 1 2.83952e-25 1.60218e-19 -2.79612e-08 -4.39584e-08 -1.55006e-05
2 2 2.83952e-25 1.60218e-19 -2.94038e-08 -2.27744e-08 -7.44639e-06
3 3 2.83952e-25 1.60218e-19 -4.31083e-08 -8.22932e-09 -1.91827e-07
4 4 2.83952e-25 1.60218e-19 -4.3461e-08 2.28091e-08 7.18286e-06
5 5 2.29154e-25 1.60218e-19 6.81222e-09 -1.55101e-08 1.55147e-05
ITEM: TIMESTEP
3100
ITEM: NUMBER OF ATOMS
5
ITEM: BOX BOUNDS mm mm mm
-1.0000000000000000e-03 1.0000000000000000e-03
-1.0000000000000000e-03 1.0000000000000000e-03
-1.0000000000000000e-03 1.0000000000000000e-03
ITEM: ATOMS id id mass q x y z
1 1 2.83952e-25 1.60218e-19 1.11029e-08 1.54221e-08 -1.6191e-05
2 2 2.83952e-25 1.60218e-19 2.53652e-08 -2.23094e-08 -7.62701e-06
3 3 2.83952e-25 1.60218e-19 1.45752e-08 2.20984e-08 -5.51028e-08
4 4 2.83952e-25 1.60218e-19 -1.22736e-08 1.68569e-08 7.50967e-06
5 5 2.29154e-25 1.60218e-19 2.8062e-09 -6.47354e-09 1.61163e-05
ITEM: TIMESTEP
3200
ITEM: NUMBER OF ATOMS
5
ITEM: BOX BOUNDS mm mm mm
-1.0000000000000000e-03 1.0000000000000000e-03
-1.0000000000000000e-03 1.0000000000000000e-03
-1.0000000000000000e-03 1.0000000000000000e-03
ITEM: ATOMS id id mass q x y z
1 1 2.83952e-25 1.60218e-19 1.94627e-08 3.29332e-08 -1.68098e-05
2 2 2.83952e-25 1.60218e-19 1.63056e-08 2.59206e-08 -7.83956e-06
3 3 2.83952e-25 1.60218e-19 3.22406e-08 2.17535e-10 7.38769e-08
4 4 2.83952e-25 1.60218e-19 4.11779e-08 -2.61723e-08 7.88924e-06
5 5 2.29154e-25 1.60218e-19 -1.02259e-08 2.35139e-08 1.66506e-05
ITEM: TIMESTEP
3300
ITEM: NUMBER OF ATOMS
5
ITEM: BOX BOUNDS mm mm mm
-1.0000000000000000e-03 1.0000000000000000e-03
-1.0000000000000000e-03 1.0000000000000000e-03
-1.0000000000000000e-03 1.0000000000000000e-03
ITEM: ATOMS id id mass q x y z
1 1 2.83952e-25 1.60218e-19 -1.75073e-08 -2.63593e-08 -1.70418e-05
2 2 2.83952e-25 1.60218e-19 -2.93183e-08 9.82065e-09 -7.96086e-06
3 3 2.83952e-25 1.60218e-19 -2.53025e-08 -1.93554e-08 1.10703e-07
4 4 2.83952e-25 1.60218e-19 -4.47156e-09 -6.07427e-09 8.11655e-06
5 5 2.29154e-25 1.60218e-19 1.3232e-08 -3.11884e-08 1.68859e-05
ITEM: TIMESTEP
3400
ITEM: NUMBER OF ATOMS
5
ITEM: BOX BOUNDS mm mm mm
-1.0000000000000000e-03 1.0000000000000000e-03
-1.0000000000000000e-03 1.0000000000000000e-03
-1.0000000000000000e-03 1.0000000000000000e-03
ITEM: ATOMS id id mass q x y z
1 1 2.83952e-25 1.60218e-19 -9.57652e-09 -1.88214e-08 -1.68343e-05
2 2 2.83952e-25 1.60218e-19 -2.84248e-09 -2.46952e-08 -7.9159e-06
3 3 2.83952e-25 1.60218e-19 -1.84676e-08 6.27071e-09 7.29872e-08
4 4 2.83952e-25 1.60218e-19 -3.34083e-08 2.56741e-08 8.05663e-06
5 5 2.29154e-25 1.60218e-19 -1.18598e-08 2.87487e-08 1.67811e-05
ITEM: TIMESTEP
3500
ITEM: NUMBER OF ATOMS
5
ITEM: BOX BOUNDS mm mm mm
-1.0000000000000000e-03 1.0000000000000000e-03
-1.0000000000000000e-03 1.0000000000000000e-03
-1.0000000000000000e-03 1.0000000000000000e-03
ITEM: ATOMS id id mass q x y z
1 1 2.83952e-25 1.60218e-19 1.89819e-08 3.05261e-08 -1.63539e-05
2 2 2.83952e-25 1.60218e-19 2.74234e-08 5.36627e-11 -7.72773e-06
3 3 2.83952e-25 1.60218e-19 2.93614e-08 1.47516e-08 1.31606e-08
4 4 2.83952e-25 1.60218e-19 1.60184e-08 -3.80522e-09 7.76468e-06
5 5 2.29154e-25 1.60218e-19 7.51063e-09 -1.84051e-08 1.64326e-05
ITEM: TIMESTEP
3600
ITEM: NUMBER OF ATOMS
5
ITEM: BOX BOUNDS mm mm mm
-1.0000000000000000e-03 1.0000000000000000e-03
-1.0000000000000000e-03 1.0000000000000000e-03
-1.0000000000000000e-03 1.0000000000000000e-03
ITEM: ATOMS id id mass q x y z
1 1 2.83952e-25 1.60218e-19 4.11245e-10 4.90676e-09 -1.58735e-05
2 2 2.83952e-25 1.60218e-19 -8.40392e-09 2.01938e-08 -7.50659e-06
3 3 2.83952e-25 1.60218e-19 4.86225e-09 -1.02356e-08 -3.23878e-08
4 4 2.83952e-25 1.60218e-19 2.24042e-08 -2.14657e-08 7.45809e-06
5 5 2.29154e-25 1.60218e-19 -1.73976e-09 4.03376e-09 1.60122e-05
ITEM: TIMESTEP
3700
ITEM: NUMBER OF ATOMS
5
ITEM: BOX BOUNDS mm mm mm
-1.0000000000000000e-03 1.0000000000000000e-03
-1.0000000000000000e-03 1.0000000000000000e-03
-1.0000000000000000e-03 1.0000000000000000e-03
ITEM: ATOMS id id mass q x y z
1 1 2.83952e-25 1.60218e-19 -1.64643e-08 -2.88555e-08 -1.56313e-05
2 2 2.83952e-25 1.60218e-19 -2.13586e-08 -6.36802e-09 -7.38609e-06
3 3 2.83952e-25 1.60218e-19 -2.76194e-08 -9.54977e-09 -4.27738e-08
4 4 2.83952e-25 1.60218e-19 -2.15316e-08 1.07494e-08 7.3378e-06
5 5 2.29154e-25 1.60218e-19 -3.99271e-09 9.84094e-09 1.57237e-05
ITEM: TIMESTEP
3800
ITEM: NUMBER OF ATOMS
5
ITEM: BOX BOUNDS mm mm mm
-1.0000000000000000e-03 1.0000000000000000e-03
-1.0000000000000000e-03 1.0000000000000000e-03
-1.0000000000000000e-03 1.0000000000000000e-03
ITEM: ATOMS id id mass q x y z
1 1 2.83952e-25 1.60218e-19 6.48442e-09 6.60248e-09 -1.57168e-05
2 2 2.83952e-25 1.60218e-19 1.60306e-08 -1.42991e-08 -7.42422e-06
3 3 2.83952e-25 1.60218e-19 6.2829e-09 1.18391e-08 -1.10792e-08
4 4 2.83952e-25 1.60218e-19 -1.10935e-08 1.54738e-08 7.42467e-06
5 5 2.29154e-25 1.60218e-19 8.08811e-09 -1.91141e-08 1.57278e-05
ITEM: TIMESTEP
3900
ITEM: NUMBER OF ATOMS
5
ITEM: BOX BOUNDS mm mm mm
-1.0000000000000000e-03 1.0000000000000000e-03
-1.0000000000000000e-03 1.0000000000000000e-03
-1.0000000000000000e-03 1.0000000000000000e-03
ITEM: ATOMS id id mass q x y z
1 1 2.83952e-25 1.60218e-19 1.1445e-08 2.29766e-08 -1.604e-05
2 2 2.83952e-25 1.60218e-19 1.2898e-08 9.52046e-09 -7.56401e-06
3 3 2.83952e-25 1.60218e-19 2.17804e-08 4.50444e-09 3.2891e-08
4 4 2.83952e-25 1.60218e-19 2.197e-08 -1.46849e-08 7.60222e-06
5 5 2.29154e-25 1.60218e-19 -9.18157e-09 2.14174e-08 1.6024e-05
ITEM: TIMESTEP
4000
ITEM: NUMBER OF ATOMS
5
ITEM: BOX BOUNDS mm mm mm
-1.0000000000000000e-03 1.0000000000000000e-03
-1.0000000000000000e-03 1.0000000000000000e-03
-1.0000000000000000e-03 1.0000000000000000e-03
ITEM: ATOMS id id mass q x y z
1 1 2.83952e-25 1.60218e-19 -1.03504e-08 -1.45352e-08 -1.64014e-05
2 2 2.83952e-25 1.60218e-19 -1.94582e-08 8.50704e-09 -7.70856e-06
3 3 2.83952e-25 1.60218e-19 -1.38025e-08 -1.16422e-08 4.68201e-08
4 4 2.83952e-25 1.60218e-19 1.49288e-09 -8.97364e-09 7.76604e-06
5 5 2.29154e-25 1.60218e-19 7.18379e-09 -1.70235e-08 1.64164e-05
ITEM: TIMESTEP
4100
ITEM: NUMBER OF ATOMS
5
ITEM: BOX BOUNDS mm mm mm
-1.0000000000000000e-03 1.0000000000000000e-03
-1.0000000000000000e-03 1.0000000000000000e-03
-1.0000000000000000e-03 1.0000000000000000e-03
ITEM: ATOMS id id mass q x y z
1 1 2.83952e-25 1.60218e-19 -5.54363e-09 -1.46905e-08 -1.66137e-05
2 2 2.83952e-25 1.60218e-19 -3.89109e-09 -1.03338e-08 -7.79799e-06
3 3 2.83952e-25 1.60218e-19 -1.37674e-08 -2.88993e-11 2.90178e-08
4 4 2.83952e-25 1.60218e-19 -1.90637e-08 1.63186e-08 7.86283e-06
5 5 2.29154e-25 1.60218e-19 -3.33821e-09 8.30616e-09 1.66561e-05
ITEM: TIMESTEP
4200
ITEM: NUMBER OF ATOMS
5
ITEM: BOX BOUNDS mm mm mm
-1.0000000000000000e-03 1.0000000000000000e-03
-1.0000000000000000e-03 1.0000000000000000e-03
-1.0000000000000000e-03 1.0000000000000000e-03
ITEM: ATOMS id id mass q x y z
1 1 2.83952e-25 1.60218e-19 1.12403e-08 1.83742e-08 -1.65958e-05
2 2 2.83952e-25 1.60218e-19 1.89247e-08 -3.58932e-09 -7.81202e-06
3 3 2.83952e-25 1.60218e-19 1.733e-08 9.96564e-09 1.04169e-08
4 4 2.83952e-25 1.60218e-19 5.71263e-09 2.24269e-09 7.85996e-06
5 5 2.29154e-25 1.60218e-19 -7.90993e-10 1.57609e-09 1.66196e-05
ITEM: TIMESTEP
4300
ITEM: NUMBER OF ATOMS
5
ITEM: BOX BOUNDS mm mm mm
-1.0000000000000000e-03 1.0000000000000000e-03
-1.0000000000000000e-03 1.0000000000000000e-03
-1.0000000000000000e-03 1.0000000000000000e-03
ITEM: ATOMS id id mass q x y z
1 1 2.83952e-25 1.60218e-19 7.85221e-11 5.92956e-09 -1.63948e-05
2 2 2.83952e-25 1.60218e-19 -3.95179e-09 9.40746e-09 -7.74899e-06
3 3 2.83952e-25 1.60218e-19 5.38712e-09 -3.27051e-09 4.49002e-09
4 4 2.83952e-25 1.60218e-19 1.39555e-08 -1.53148e-08 7.75215e-06
5 5 2.29154e-25 1.60218e-19 4.05527e-09 -9.72469e-09 1.63668e-05
ITEM: TIMESTEP
4400
ITEM: NUMBER OF ATOMS
5
ITEM: BOX BOUNDS mm mm mm
-1.0000000000000000e-03 1.0000000000000000e-03
-1.0000000000000000e-03 1.0000000000000000e-03
-1.0000000000000000e-03 1.0000000000000000e-03
ITEM: ATOMS id id mass q x y z
1 1 2.83952e-25 1.60218e-19 -9.73455e-09 -1.83993e-08 -1.61398e-05
2 2 2.83952e-25 1.60218e-19 -1.5369e-08 -2.10522e-11 -7.63379e-06
3 3 2.83952e-25 1.60218e-19 -1.71838e-08 -7.40096e-09 -6.90018e-09
4 4 2.83952e-25 1.60218e-19 -9.88719e-09 3.37869e-09 7.58809e-06
5 5 2.29154e-25 1.60218e-19 -5.8333e-09 1.40928e-08 1.60721e-05
ITEM: TIMESTEP
4500
ITEM: NUMBER OF ATOMS
5
ITEM: BOX BOUNDS mm mm mm
-1.0000000000000000e-03 1.0000000000000000e-03
-1.0000000000000000e-03 1.0000000000000000e-03
-1.0000000000000000e-03 1.0000000000000000e-03
ITEM: ATOMS id id mass q x y z
1 1 2.83952e-25 1.60218e-19 4.04025e-09 1.71945e-09 -1.59631e-05
2 2 2.83952e-25 1.60218e-19 9.52878e-09 -7.43528e-09 -7.5344e-06
3 3 2.83952e-25 1.60218e-19 1.83627e-09 5.15876e-09 -3.46634e-08
4 4 2.83952e-25 1.60218e-19 -8.05702e-09 1.23673e-08 7.46091e-06
5 5 2.29154e-25 1.60218e-19 5.8027e-09 -1.37847e-08 1.58995e-05
ITEM: TIMESTEP
4600
ITEM: NUMBER OF ATOMS
5
ITEM: BOX BOUNDS mm mm mm
-1.0000000000000000e-03 1.0000000000000000e-03
-1.0000000000000000e-03 1.0000000000000000e-03
-1.0000000000000000e-03 1.0000000000000000e-03
ITEM: ATOMS id id mass q x y z
1 1 2.83952e-25 1.60218e-19 6.70349e-09 1.55247e-08 -1.59374e-05
2 2 2.83952e-25 1.60218e-19 1.00464e-08 2.18889e-09 -7.52452e-06
3 3 2.83952e-25 1.60218e-19 1.42735e-08 4.60624e-09 -5.43826e-08
4 4 2.83952e-25 1.60218e-19 1.11024e-08 -7.10007e-09 7.44611e-06
5 5 2.29154e-25 1.60218e-19 -4.00213e-09 9.35043e-09 1.59131e-05
ITEM: TIMESTEP
4700
ITEM: NUMBER OF ATOMS
5
ITEM: BOX BOUNDS mm mm mm
-1.0000000000000000e-03 1.0000000000000000e-03
-1.0000000000000000e-03 1.0000000000000000e-03
-1.0000000000000000e-03 1.0000000000000000e-03
ITEM: ATOMS id id mass q x y z
1 1 2.83952e-25 1.60218e-19 -6.34496e-09 -7.32763e-09 -1.60577e-05
2 2 2.83952e-25 1.60218e-19 -1.24079e-08 5.16085e-09 -7.60483e-06
3 3 2.83952e-25 1.60218e-19 -6.98736e-09 -5.83409e-09 -4.10312e-08
4 4 2.83952e-25 1.60218e-19 2.73516e-09 -8.67454e-09 7.54263e-06
5 5 2.29154e-25 1.60218e-19 1.12669e-09 -2.69479e-09 1.60698e-05
ITEM: TIMESTEP
4800
ITEM: NUMBER OF ATOMS
5
ITEM: BOX BOUNDS mm mm mm
-1.0000000000000000e-03 1.0000000000000000e-03
-1.0000000000000000e-03 1.0000000000000000e-03
-1.0000000000000000e-03 1.0000000000000000e-03
ITEM: ATOMS id id mass q x y z
1 1 2.83952e-25 1.60218e-19 -3.11074e-09 -1.08749e-08 -1.62524e-05
2 2 2.83952e-25 1.60218e-19 -4.1714e-09 -3.1659e-09 -7.69799e-06
3 3 2.83952e-25 1.60218e-19 -9.77131e-09 -1.96598e-09 -5.94598e-09
4 4 2.83952e-25 1.60218e-19 -1.02478e-08 9.29827e-09 7.67997e-06
5 5 2.29154e-25 1.60218e-19 1.68881e-09 -3.78831e-09 1.62697e-05
ITEM: TIMESTEP
4900
ITEM: NUMBER OF ATOMS
5
ITEM: BOX BOUNDS mm mm mm
-1.0000000000000000e-03 1.0000000000000000e-03
-1.0000000000000000e-03 1.0000000000000000e-03
-1.0000000000000000e-03 1.0000000000000000e-03
ITEM: ATOMS id id mass q x y z
1 1 2.83952e-25 1.60218e-19 6.83294e-09 1.05009e-08 -1.64149e-05
2 2 2.83952e-25 1.60218e-19 1.26657e-08 -3.10176e-09 -7.73645e-06
3 3 2.83952e-25 1.60218e-19 9.7746e-09 5.52908e-09 2.48426e-08
4 4 2.83952e-25 1.60218e-19 1.43704e-09 4.53529e-09 7.77591e-06
5 5 2.29154e-25 1.60218e-19 -3.52547e-09 8.22985e-09 1.64124e-05
ITEM: TIMESTEP
5000
ITEM: NUMBER OF ATOMS
5
ITEM: BOX BOUNDS mm mm mm
-1.0000000000000000e-03 1.0000000000000000e-03
-1.0000000000000000e-03 1.0000000000000000e-03
-1.0000000000000000e-03 1.0000000000000000e-03
ITEM: ATOMS id id mass q x y z
1 1 2.83952e-25 1.60218e-19 -2.05348e-10 5.57663e-09 -1.64566e-05
2 2 2.83952e-25 1.60218e-19 -1.18184e-09 3.32207e-09 -7.71761e-06
3 3 2.83952e-25 1.60218e-19 4.78447e-09 -1.93209e-10 3.91563e-08
4 4 2.83952e-25 1.60218e-19 8.04102e-09 -9.87144e-09 7.78904e-06
5 5 2.29154e-25 1.60218e-19 4.0557e-09 -9.72621e-09 1.64387e-05
ITEM: TIMESTEP
5100
ITEM: NUMBER OF ATOMS
5
ITEM: BOX BOUNDS mm mm mm
-1.0000000000000000e-03 1.0000000000000000e-03
-1.0000000000000000e-03 1.0000000000000000e-03
-1.0000000000000000e-03 1.0000000000000000e-03
ITEM: ATOMS id id mass q x y z
1 1 2.83952e-25 1.60218e-19 -5.86019e-09 -1.12848e-08 -1.636e-05
2 2 2.83952e-25 1.60218e-19 -1.08083e-08 1.48533e-09 -7.67541e-06
3 3 2.83952e-25 1.60218e-19 -1.03046e-08 -4.52217e-09 3.52567e-08
4 4 2.83952e-25 1.60218e-19 -4.16264e-09 -5.42654e-10 7.73241e-06
5 5 2.29154e-25 1.60218e-19 -3.40793e-09 8.2628e-09 1.63511e-05
ITEM: TIMESTEP
5200
ITEM: NUMBER OF ATOMS
5
ITEM: BOX BOUNDS mm mm mm
-1.0000000000000000e-03 1.0000000000000000e-03
-1.0000000000000000e-03 1.0000000000000000e-03
-1.0000000000000000e-03 1.0000000000000000e-03
ITEM: ATOMS id id mass q x y z
1 1 2.83952e-25 1.60218e-19 2.68328e-09 -6.48645e-10 -1.61896e-05
2 2 2.83952e-25 1.60218e-19 5.21519e-09 -2.94598e-09 -7.63332e-06
3 3 2.83952e-25 1.60218e-19 -2.47275e-10 1.63712e-09 1.41804e-08