ITEM: TIMESTEP
0
ITEM: NUMBER OF ATOMS
5
ITEM: BOX BOUNDS mm mm mm
-1.0000000000000000e-03 1.0000000000000000e-03
-1.0000000000000000e-03 1.0000000000000000e-03
-1.0000000000000000e-03 1.0000000000000000e-03
ITEM: ATOMS id id mass q x y z
1 1 2.83952e-25 1.60218e-19 -3.40229e-08 4.98285e-08 -2.5e-05
2 2 2.83952e-25 1.60218e-19 4.78444e-08 -3.00848e-07 -1.25e-05
3 3 2.83952e-25 1.60218e-19 7.39245e-08 1.94522e-07 0
4 4 2.83952e-25 1.60218e-19 2.66063e-07 2.54949e-07 1.25e-05
5 5 2.83952e-25 1.60218e-19 -4.03246e-07 -3.57161e-07 2.5e-05
ITEM: TIMESTEP
100
ITEM: NUMBER OF ATOMS
5
ITEM: BOX BOUNDS mm mm mm
-1.0000000000000000e-03 1.0000000000000000e-03
-1.0000000000000000e-03 1.0000000000000000e-03
-1.0000000000000000e-03 1.0000000000000000e-03
ITEM: ATOMS id id mass q x y z
1 1 2.83952e-25 1.60218e-19 2.66595e-08 -3.98216e-08 -1.74215e-05
2 2 2.83952e-25 1.60218e-19 -3.70474e-08 2.35963e-07 -8.47953e-06
3 3 2.83952e-25 1.60218e-19 -5.65357e-08 -1.52315e-07 -5.50901e-10
4 4 2.83952e-25 1.60218e-19 -2.08973e-07 -1.9974e-07 8.48256e-06
5 5 2.83952e-25 1.60218e-19 3.13992e-07 2.78211e-07 1.7419e-05
ITEM: TIMESTEP
200
ITEM: NUMBER OF ATOMS
5
ITEM: BOX BOUNDS mm mm mm
-1.0000000000000000e-03 1.0000000000000000e-03
-1.0000000000000000e-03 1.0000000000000000e-03
-1.0000000000000000e-03 1.0000000000000000e-03
ITEM: ATOMS id id mass q x y z
1 1 2.83952e-25 1.60218e-19 -2.43552e-08 5.58479e-08 -4.8667e-06
2 2 2.83952e-25 1.60218e-19 1.6576e-08 -2.59471e-07 -2.34743e-06
3 3 2.83952e-25 1.60218e-19 4.76524e-09 1.6753e-07 -4.63247e-09
4 4 2.83952e-25 1.60218e-19 2.14195e-07 1.87166e-07 2.38807e-06
5 5 2.83952e-25 1.60218e-19 -2.27983e-07 -2.05013e-07 4.8307e-06
ITEM: TIMESTEP
300
ITEM: NUMBER OF ATOMS
5
ITEM: BOX BOUNDS mm mm mm
-1.0000000000000000e-03 1.0000000000000000e-03
-1.0000000000000000e-03 1.0000000000000000e-03
-1.0000000000000000e-03 1.0000000000000000e-03
ITEM: ATOMS id id mass q x y z
1 1 2.83952e-25 1.60218e-19 2.76965e-08 -5.36261e-08 -1.4645e-05
2 2 2.83952e-25 1.60218e-19 1.97602e-08 2.10736e-07 -6.63412e-06
3 3 2.83952e-25 1.60218e-19 -1.42086e-08 -1.19601e-07 -3.48829e-08
4 4 2.83952e-25 1.60218e-19 -1.95137e-07 -2.13042e-07 6.67385e-06
5 5 2.83952e-25 1.60218e-19 1.55599e-07 1.5534e-07 1.46401e-05
ITEM: TIMESTEP
400
ITEM: NUMBER OF ATOMS
5
ITEM: BOX BOUNDS mm mm mm
-1.0000000000000000e-03 1.0000000000000000e-03
-1.0000000000000000e-03 1.0000000000000000e-03
-1.0000000000000000e-03 1.0000000000000000e-03
ITEM: ATOMS id id mass q x y z
1 1 2.83952e-25 1.60218e-19 -1.04638e-08 6.11749e-08 -2.06294e-05
2 2 2.83952e-25 1.60218e-19 -3.21325e-08 -1.61662e-07 -9.98123e-06
3 3 2.83952e-25 1.60218e-19 -5.8654e-08 8.32794e-08 -1.59565e-08
4 4 2.83952e-25 1.60218e-19 1.34848e-07 1.17824e-07 9.99194e-06
5 5 2.83952e-25 1.60218e-19 -9.8284e-09 -2.43098e-08 2.06346e-05
ITEM: TIMESTEP
500
ITEM: NUMBER OF ATOMS
5
ITEM: BOX BOUNDS mm mm mm
-1.0000000000000000e-03 1.0000000000000000e-03
-1.0000000000000000e-03 1.0000000000000000e-03
-1.0000000000000000e-03 1.0000000000000000e-03
ITEM: ATOMS id id mass q x y z
1 1 2.83952e-25 1.60218e-19 -7.48428e-09 -5.18104e-08 -1.4631e-05
2 2 2.83952e-25 1.60218e-19 3.26169e-08 7.85081e-08 -7.19662e-06
3 3 2.83952e-25 1.60218e-19 1.06007e-07 -3.0873e-08 2.78015e-08
4 4 2.83952e-25 1.60218e-19 -4.88962e-08 -5.09727e-09 7.1636e-06
5 5 2.83952e-25 1.60218e-19 -1.13379e-07 -9.06787e-08 1.46362e-05
ITEM: TIMESTEP
600
ITEM: NUMBER OF ATOMS
5
ITEM: BOX BOUNDS mm mm mm
-1.0000000000000000e-03 1.0000000000000000e-03
-1.0000000000000000e-03 1.0000000000000000e-03
-1.0000000000000000e-03 1.0000000000000000e-03
ITEM: ATOMS id id mass q x y z
1 1 2.83952e-25 1.60218e-19 2.09732e-08 4.95961e-08 -6.30612e-06
2 2 2.83952e-25 1.60218e-19 -3.27112e-08 -5.9428e-08 -2.90129e-06
3 3 2.83952e-25 1.60218e-19 -1.34945e-07 1.15781e-08 -1.4822e-09
4 4 2.83952e-25 1.60218e-19 1.59842e-08 -4.49028e-08 2.91781e-06
5 5 2.83952e-25 1.60218e-19 1.5842e-07 1.32151e-07 6.29109e-06
ITEM: TIMESTEP
700
ITEM: NUMBER OF ATOMS
5
ITEM: BOX BOUNDS mm mm mm
-1.0000000000000000e-03 1.0000000000000000e-03
-1.0000000000000000e-03 1.0000000000000000e-03
-1.0000000000000000e-03 1.0000000000000000e-03
ITEM: ATOMS id id mass q x y z
1 1 2.83952e-25 1.60218e-19 -3.37357e-08 -5.14767e-08 -1.28181e-05
2 2 2.83952e-25 1.60218e-19 3.04234e-08 5.37054e-08 -5.84983e-06
3 3 2.83952e-25 1.60218e-19 1.38714e-07 7.84777e-09 -2.01654e-08
4 4 2.83952e-25 1.60218e-19 -6.51295e-10 5.99746e-08 5.87604e-06
5 5 2.83952e-25 1.60218e-19 -1.51048e-07 -1.22371e-07 1.2812e-05
ITEM: TIMESTEP
800
ITEM: NUMBER OF ATOMS
5
ITEM: BOX BOUNDS mm mm mm
-1.0000000000000000e-03 1.0000000000000000e-03
-1.0000000000000000e-03 1.0000000000000000e-03
-1.0000000000000000e-03 1.0000000000000000e-03
ITEM: ATOMS id id mass q x y z
1 1 2.83952e-25 1.60218e-19 3.83634e-08 2.04857e-08 -1.77426e-05
2 2 2.83952e-25 1.60218e-19 3.4383e-09 2.00289e-08 -8.22343e-06
3 3 2.83952e-25 1.60218e-19 -1.23649e-07 -2.97049e-08 1.33682e-08
4 4 2.83952e-25 1.60218e-19 -6.00845e-08 -1.36842e-07 8.2005e-06
5 5 2.83952e-25 1.60218e-19 1.43592e-07 1.31364e-07 1.77522e-05
ITEM: TIMESTEP
900
ITEM: NUMBER OF ATOMS
5
ITEM: BOX BOUNDS mm mm mm
-1.0000000000000000e-03 1.0000000000000000e-03
-1.0000000000000000e-03 1.0000000000000000e-03
-1.0000000000000000e-03 1.0000000000000000e-03
ITEM: ATOMS id id mass q x y z
1 1 2.83952e-25 1.60218e-19 -3.16863e-08 1.14632e-08 -1.35275e-05
2 2 2.83952e-25 1.60218e-19 -3.38756e-08 -7.83313e-08 -6.56805e-06
3 3 2.83952e-25 1.60218e-19 7.89664e-08 3.83912e-08 7.6058e-09
4 4 2.83952e-25 1.60218e-19 9.55166e-08 1.68259e-07 6.55798e-06
5 5 2.83952e-25 1.60218e-19 -9.77606e-08 -1.03954e-07 1.35299e-05
ITEM: TIMESTEP
1000
ITEM: NUMBER OF ATOMS
5
ITEM: BOX BOUNDS mm mm mm
-1.0000000000000000e-03 1.0000000000000000e-03
-1.0000000000000000e-03 1.0000000000000000e-03
-1.0000000000000000e-03 1.0000000000000000e-03
ITEM: ATOMS id id mass q x y z
1 1 2.83952e-25 1.60218e-19 2.20066e-08 -2.91441e-08 -7.64974e-06
2 2 2.83952e-25 1.60218e-19 5.65074e-08 9.80054e-08 -3.48801e-06
3 3 2.83952e-25 1.60218e-19 -4.35623e-08 -2.78214e-08 6.65229e-09
4 4 2.83952e-25 1.60218e-19 -9.71276e-08 -1.65599e-07 3.48425e-06
5 5 2.83952e-25 1.60218e-19 4.36763e-08 6.51698e-08 7.64684e-06
ITEM: TIMESTEP
1100
ITEM: NUMBER OF ATOMS
5
ITEM: BOX BOUNDS mm mm mm
-1.0000000000000000e-03 1.0000000000000000e-03
-1.0000000000000000e-03 1.0000000000000000e-03
-1.0000000000000000e-03 1.0000000000000000e-03
ITEM: ATOMS id id mass q x y z
1 1 2.83952e-25 1.60218e-19 -9.66066e-09 3.82371e-08 -1.14764e-05
2 2 2.83952e-25 1.60218e-19 -7.11959e-08 -9.99883e-08 -5.53613e-06
3 3 2.83952e-25 1.60218e-19 1.68399e-08 8.66243e-09 -1.2593e-08
4 4 2.83952e-25 1.60218e-19 8.14311e-08 1.4555e-07 5.54919e-06
5 5 2.83952e-25 1.60218e-19 1.5487e-09 -3.15841e-08 1.14759e-05
ITEM: TIMESTEP
1200
ITEM: NUMBER OF ATOMS
5
ITEM: BOX BOUNDS mm mm mm
-1.0000000000000000e-03 1.0000000000000000e-03
-1.0000000000000000e-03 1.0000000000000000e-03
-1.0000000000000000e-03 1.0000000000000000e-03
ITEM: ATOMS id id mass q x y z
1 1 2.83952e-25 1.60218e-19 -1.26064e-08 -4.99707e-08 -1.56824e-05
2 2 2.83952e-25 1.60218e-19 6.9453e-08 1.02591e-07 -7.25128e-06
3 3 2.83952e-25 1.60218e-19 3.40186e-08 5.23991e-09 1.5775e-08
4 4 2.83952e-25 1.60218e-19 -5.97851e-08 -9.45503e-08 7.23233e-06
5 5 2.83952e-25 1.60218e-19 -4.45819e-08 -6.65469e-09 1.56855e-05
ITEM: TIMESTEP
1300
ITEM: NUMBER OF ATOMS
5
ITEM: BOX BOUNDS mm mm mm
-1.0000000000000000e-03 1.0000000000000000e-03
-1.0000000000000000e-03 1.0000000000000000e-03
-1.0000000000000000e-03 1.0000000000000000e-03
ITEM: ATOMS id id mass q x y z
1 1 2.83952e-25 1.60218e-19 2.98342e-08 4.85857e-08 -1.3131e-05
2 2 2.83952e-25 1.60218e-19 -5.03716e-08 -8.15654e-08 -6.15468e-06
3 3 2.83952e-25 1.60218e-19 -6.97176e-08 -1.54955e-08 -5.57874e-09
4 4 2.83952e-25 1.60218e-19 2.72153e-08 2.80948e-08 6.16467e-06
5 5 2.83952e-25 1.60218e-19 6.77822e-08 3.56054e-08 1.31265e-05
ITEM: TIMESTEP
1400
ITEM: NUMBER OF ATOMS
5
ITEM: BOX BOUNDS mm mm mm
-1.0000000000000000e-03 1.0000000000000000e-03
-1.0000000000000000e-03 1.0000000000000000e-03
-1.0000000000000000e-03 1.0000000000000000e-03
ITEM: ATOMS id id mass q x y z
1 1 2.83952e-25 1.60218e-19 -3.97043e-08 -4.07646e-08 -8.71369e-06
2 2 2.83952e-25 1.60218e-19 2.86833e-08 5.51792e-08 -4.14476e-06
3 3 2.83952e-25 1.60218e-19 8.05646e-08 2.15681e-08 6.93983e-09
4 4 2.83952e-25 1.60218e-19 5.68843e-11 1.97321e-08 4.13436e-06
5 5 2.83952e-25 1.60218e-19 -6.55133e-08 -4.25937e-08 8.71715e-06
ITEM: TIMESTEP
1500
ITEM: NUMBER OF ATOMS
5
ITEM: BOX BOUNDS mm mm mm
-1.0000000000000000e-03 1.0000000000000000e-03
-1.0000000000000000e-03 1.0000000000000000e-03
-1.0000000000000000e-03 1.0000000000000000e-03
ITEM: ATOMS id id mass q x y z
1 1 2.83952e-25 1.60218e-19 4.26949e-08 3.03499e-08 -1.08481e-05
2 2 2.83952e-25 1.60218e-19 -8.90496e-09 -3.07078e-08 -5.14002e-06
3 3 2.83952e-25 1.60218e-19 -7.49264e-08 -2.26423e-08 -4.90935e-09
4 4 2.83952e-25 1.60218e-19 -1.80107e-08 -4.7284e-08 5.14835e-06
5 5 2.83952e-25 1.60218e-19 4.88954e-08 3.73733e-08 1.08447e-05
ITEM: TIMESTEP
1600
ITEM: NUMBER OF ATOMS
5
ITEM: BOX BOUNDS mm mm mm
-1.0000000000000000e-03 1.0000000000000000e-03
-1.0000000000000000e-03 1.0000000000000000e-03
-1.0000000000000000e-03 1.0000000000000000e-03
ITEM: ATOMS id id mass q x y z
1 1 2.83952e-25 1.60218e-19 -3.31042e-08 -1.0979e-08 -1.41669e-05
2 2 2.83952e-25 1.60218e-19 -2.22298e-08 -7.34328e-09 -6.75318e-06
3 3 2.83952e-25 1.60218e-19 6.03969e-08 1.12116e-08 9.63842e-09
4 4 2.83952e-25 1.60218e-19 3.32136e-08 7.86825e-08 6.74166e-06
5 5 2.83952e-25 1.60218e-19 -2.60038e-08 -3.21731e-08 1.41688e-05
ITEM: TIMESTEP
1700
ITEM: NUMBER OF ATOMS
5
ITEM: BOX BOUNDS mm mm mm
-1.0000000000000000e-03 1.0000000000000000e-03
-1.0000000000000000e-03 1.0000000000000000e-03
-1.0000000000000000e-03 1.0000000000000000e-03
ITEM: ATOMS id id mass q x y z
1 1 2.83952e-25 1.60218e-19 1.50195e-08 -9.39458e-09 -1.2883e-05
2 2 2.83952e-25 1.60218e-19 4.61062e-08 3.98068e-08 -5.97098e-06
3 3 2.83952e-25 1.60218e-19 -3.48199e-08 3.91794e-09 -9.00656e-09
4 4 2.83952e-25 1.60218e-19 -3.7382e-08 -8.91517e-08 5.98087e-06
5 5 2.83952e-25 1.60218e-19 8.90958e-10 2.21239e-08 1.28821e-05
ITEM: TIMESTEP
1800
ITEM: NUMBER OF ATOMS
5
ITEM: BOX BOUNDS mm mm mm
-1.0000000000000000e-03 1.0000000000000000e-03
-1.0000000000000000e-03 1.0000000000000000e-03
-1.0000000000000000e-03 1.0000000000000000e-03
ITEM: ATOMS id id mass q x y z
1 1 2.83952e-25 1.60218e-19 3.43004e-09 2.29929e-08 -9.58961e-06
2 2 2.83952e-25 1.60218e-19 -5.64951e-08 -5.62236e-08 -4.59668e-06
3 3 2.83952e-25 1.60218e-19 9.93098e-09 -1.76143e-08 6.86525e-09
4 4 2.83952e-25 1.60218e-19 3.07765e-08 7.93758e-08 4.58852e-06
5 5 2.83952e-25 1.60218e-19 1.76446e-08 -1.15579e-08 9.5909e-06
ITEM: TIMESTEP
1900
ITEM: NUMBER OF ATOMS
5
ITEM: BOX BOUNDS mm mm mm
-1.0000000000000000e-03 1.0000000000000000e-03
-1.0000000000000000e-03 1.0000000000000000e-03
-1.0000000000000000e-03 1.0000000000000000e-03
ITEM: ATOMS id id mass q x y z
1 1 2.83952e-25 1.60218e-19 -1.92731e-08 -3.02423e-08 -1.06155e-05
2 2 2.83952e-25 1.60218e-19 5.6788e-08 5.99117e-08 -4.93141e-06
3 3 2.83952e-25 1.60218e-19 8.24255e-09 2.80119e-08 -3.12651e-09
4 4 2.83952e-25 1.60218e-19 -1.9063e-08 -6.09806e-08 4.93525e-06
5 5 2.83952e-25 1.60218e-19 -2.62307e-08 4.78798e-09 1.06148e-05
ITEM: TIMESTEP
2000
ITEM: NUMBER OF ATOMS
5
ITEM: BOX BOUNDS mm mm mm
-1.0000000000000000e-03 1.0000000000000000e-03
-1.0000000000000000e-03 1.0000000000000000e-03
-1.0000000000000000e-03 1.0000000000000000e-03
ITEM: ATOMS id id mass q x y z
1 1 2.83952e-25 1.60218e-19 3.23542e-08 3.35745e-08 -1.31694e-05
2 2 2.83952e-25 1.60218e-19 -4.66067e-08 -5.39784e-08 -6.27393e-06
3 3 2.83952e-25 1.60218e-19 -2.45139e-08 -3.20854e-08 3.50613e-09
4 4 2.83952e-25 1.60218e-19 5.56607e-09 3.43984e-08 6.26785e-06
5 5 2.83952e-25 1.60218e-19 2.80434e-08 1.53556e-09 1.3172e-05
ITEM: TIMESTEP
2100
ITEM: NUMBER OF ATOMS
5
ITEM: BOX BOUNDS mm mm mm
-1.0000000000000000e-03 1.0000000000000000e-03
-1.0000000000000000e-03 1.0000000000000000e-03
-1.0000000000000000e-03 1.0000000000000000e-03
ITEM: ATOMS id id mass q x y z
1 1 2.83952e-25 1.60218e-19 -3.6666e-08 -2.9545e-08 -1.26207e-05
2 2 2.83952e-25 1.60218e-19 2.71609e-08 3.6909e-08 -5.95769e-06
3 3 2.83952e-25 1.60218e-19 3.28196e-08 2.78794e-08 -5.28303e-09
4 4 2.83952e-25 1.60218e-19 6.64061e-09 -5.06591e-09 5.96511e-06
5 5 2.83952e-25 1.60218e-19 -2.24425e-08 -6.05981e-09 1.26185e-05
ITEM: TIMESTEP
2200
ITEM: NUMBER OF ATOMS
5
ITEM: BOX BOUNDS mm mm mm
-1.0000000000000000e-03 1.0000000000000000e-03
-1.0000000000000000e-03 1.0000000000000000e-03
-1.0000000000000000e-03 1.0000000000000000e-03
ITEM: ATOMS id id mass q x y z
1 1 2.83952e-25 1.60218e-19 3.25366e-08 2.0751e-08 -1.0292e-05
2 2 2.83952e-25 1.60218e-19 -6.95153e-09 -1.60655e-08 -4.82839e-06
3 3 2.83952e-25 1.60218e-19 -3.0958e-08 -1.89052e-08 4.23897e-09
4 4 2.83952e-25 1.60218e-19 -1.41299e-08 -1.62726e-08 4.8231e-06
5 5 2.83952e-25 1.60218e-19 1.23272e-08 7.45656e-09 1.02931e-05
ITEM: TIMESTEP
2300
ITEM: NUMBER OF ATOMS
5
ITEM: BOX BOUNDS mm mm mm
-1.0000000000000000e-03 1.0000000000000000e-03
-1.0000000000000000e-03 1.0000000000000000e-03
-1.0000000000000000e-03 1.0000000000000000e-03
ITEM: ATOMS id id mass q x y z
1 1 2.83952e-25 1.60218e-19 -2.31659e-08 -1.08152e-08 -1.0549e-05
2 2 2.83952e-25 1.60218e-19 -9.29062e-09 -2.62859e-09 -4.99905e-06
3 3 2.83952e-25 1.60218e-19 2.29024e-08 7.95798e-09 -1.82561e-09
4 4 2.83952e-25 1.60218e-19 1.62893e-08 2.73067e-08 5.00019e-06
5 5 2.83952e-25 1.60218e-19 -2.05725e-09 -6.80329e-09 1.05497e-05
ITEM: TIMESTEP
2400
ITEM: NUMBER OF ATOMS
5
ITEM: BOX BOUNDS mm mm mm
-1.0000000000000000e-03 1.0000000000000000e-03
-1.0000000000000000e-03 1.0000000000000000e-03
-1.0000000000000000e-03 1.0000000000000000e-03
ITEM: ATOMS id id mass q x y z
1 1 2.83952e-25 1.60218e-19 7.91059e-09 -1.8002e-09 -1.25222e-05
2 2 2.83952e-25 1.60218e-19 2.42869e-08 2.03832e-08 -5.86242e-06
3 3 2.83952e-25 1.60218e-19 -1.25794e-08 5.38653e-09 1.59678e-09
4 4 2.83952e-25 1.60218e-19 -1.42608e-08 -3.44541e-08 5.86115e-06
5 5 2.83952e-25 1.60218e-19 -6.49133e-09 6.84391e-09 1.25218e-05
ITEM: TIMESTEP
2500
ITEM: NUMBER OF ATOMS
5
ITEM: BOX BOUNDS mm mm mm
-1.0000000000000000e-03 1.0000000000000000e-03
-1.0000000000000000e-03 1.0000000000000000e-03
-1.0000000000000000e-03 1.0000000000000000e-03
ITEM: ATOMS id id mass q x y z
1 1 2.83952e-25 1.60218e-19 8.42401e-09 1.33321e-08 -1.23949e-05
2 2 2.83952e-25 1.60218e-19 -3.3207e-08 -3.19539e-08 -5.89282e-06
3 3 2.83952e-25 1.60218e-19 1.9416e-09 -1.69821e-08 -2.40096e-09
4 4 2.83952e-25 1.60218e-19 9.01372e-09 3.50665e-08 5.89604e-06
5 5 2.83952e-25 1.60218e-19 1.16314e-08 -6.51313e-09 1.23941e-05
ITEM: TIMESTEP
2600
ITEM: NUMBER OF ATOMS
5
ITEM: BOX BOUNDS mm mm mm
-1.0000000000000000e-03 1.0000000000000000e-03
-1.0000000000000000e-03 1.0000000000000000e-03
-1.0000000000000000e-03 1.0000000000000000e-03
ITEM: ATOMS id id mass q x y z
1 1 2.83952e-25 1.60218e-19 -2.06845e-08 -2.03966e-08 -1.07628e-05
2 2 2.83952e-25 1.60218e-19 3.38978e-08 3.45834e-08 -5.04766e-06
3 3 2.83952e-25 1.60218e-19 6.07402e-09 2.32575e-08 1.61201e-09
4 4 2.83952e-25 1.60218e-19 -2.53685e-09 -2.92998e-08 5.04464e-06
5 5 2.83952e-25 1.60218e-19 -1.24311e-08 5.72166e-09 1.07642e-05
ITEM: TIMESTEP
2700
ITEM: NUMBER OF ATOMS
5
ITEM: BOX BOUNDS mm mm mm
-1.0000000000000000e-03 1.0000000000000000e-03
-1.0000000000000000e-03 1.0000000000000000e-03
-1.0000000000000000e-03 1.0000000000000000e-03
ITEM: ATOMS id id mass q x y z
1 1 2.83952e-25 1.60218e-19 2.71786e-08 2.28485e-08 -1.06434e-05
2 2 2.83952e-25 1.60218e-19 -2.88939e-08 -3.02899e-08 -5.0458e-06
3 3 2.83952e-25 1.60218e-19 -9.85546e-09 -2.41991e-08 1.15056e-10
4 4 2.83952e-25 1.60218e-19 -3.07913e-09 2.11899e-08 5.04622e-06
5 5 2.83952e-25 1.60218e-19 9.87794e-09 -4.8688e-09 1.06428e-05
ITEM: TIMESTEP
2800
ITEM: NUMBER OF ATOMS
5
ITEM: BOX BOUNDS mm mm mm
-1.0000000000000000e-03 1.0000000000000000e-03
-1.0000000000000000e-03 1.0000000000000000e-03
-1.0000000000000000e-03 1.0000000000000000e-03
ITEM: ATOMS id id mass q x y z
1 1 2.83952e-25 1.60218e-19 -2.74832e-08 -2.08977e-08 -1.20485e-05
2 2 2.83952e-25 1.60218e-19 1.9684e-08 2.06962e-08 -5.67032e-06
3 3 2.83952e-25 1.60218e-19 1.01949e-08 2.05587e-08 -2.19641e-10
4 4 2.83952e-25 1.60218e-19 6.96537e-09 -1.19836e-08 5.67048e-06
5 5 2.83952e-25 1.60218e-19 -5.68089e-09 3.44082e-09 1.20486e-05
ITEM: TIMESTEP
2900
ITEM: NUMBER OF ATOMS
5
ITEM: BOX BOUNDS mm mm mm
-1.0000000000000000e-03 1.0000000000000000e-03
-1.0000000000000000e-03 1.0000000000000000e-03
-1.0000000000000000e-03 1.0000000000000000e-03
ITEM: ATOMS id id mass q x y z
1 1 2.83952e-25 1.60218e-19 2.13768e-08 1.46099e-08 -1.22186e-05
2 2 2.83952e-25 1.60218e-19 -7.96974e-09 -7.85463e-09 -5.75076e-06
3 3 2.83952e-25 1.60218e-19 -7.61838e-09 -1.31242e-08 -7.13431e-10
4 4 2.83952e-25 1.60218e-19 -8.48702e-09 2.55298e-09 5.751e-06
5 5 2.83952e-25 1.60218e-19 1.07191e-09 -1.40538e-09 1.22191e-05
ITEM: TIMESTEP
3000
ITEM: NUMBER OF ATOMS
5
ITEM: BOX BOUNDS mm mm mm
-1.0000000000000000e-03 1.0000000000000000e-03
-1.0000000000000000e-03 1.0000000000000000e-03
-1.0000000000000000e-03 1.0000000000000000e-03
ITEM: ATOMS id id mass q x y z
1 1 2.83952e-25 1.60218e-19 -1.13935e-08 -6.24929e-09 -1.10597e-05
2 2 2.83952e-25 1.60218e-19 -2.71939e-09 -4.26248e-09 -5.23981e-06
3 3 2.83952e-25 1.60218e-19 3.25416e-09 4.43963e-09 6.17145e-10
4 4 2.83952e-25 1.60218e-19 7.6199e-09 4.65257e-09 5.23943e-06
5 5 2.83952e-25 1.60218e-19 2.63627e-09 -5.14961e-10 1.10594e-05
ITEM: TIMESTEP
3100
ITEM: NUMBER OF ATOMS
5
ITEM: BOX BOUNDS mm mm mm
-1.0000000000000000e-03 1.0000000000000000e-03
-1.0000000000000000e-03 1.0000000000000000e-03
-1.0000000000000000e-03 1.0000000000000000e-03
ITEM: ATOMS id id mass q x y z
1 1 2.83952e-25 1.60218e-19 5.53399e-10 -2.02742e-09 -1.08037e-05
2 2 2.83952e-25 1.60218e-19 1.02334e-08 1.30965e-08 -5.07263e-06
3 3 2.83952e-25 1.60218e-19 1.32644e-09 3.06069e-09 4.7624e-10
4 4 2.83952e-25 1.60218e-19 -5.18333e-09 -8.80809e-09 5.07188e-06
5 5 2.83952e-25 1.60218e-19 -4.63862e-09 2.03386e-09 1.08039e-05
ITEM: TIMESTEP
3200
ITEM: NUMBER OF ATOMS
5
ITEM: BOX BOUNDS mm mm mm
-1.0000000000000000e-03 1.0000000000000000e-03
-1.0000000000000000e-03 1.0000000000000000e-03
-1.0000000000000000e-03 1.0000000000000000e-03
ITEM: ATOMS id id mass q x y z
1 1 2.83952e-25 1.60218e-19 9.41458e-09 9.3291e-09 -1.17364e-05
2 2 2.83952e-25 1.60218e-19 -1.4963e-08 -1.83481e-08 -5.56134e-06
3 3 2.83952e-25 1.60218e-19 -4.62695e-09 -8.87689e-09 -1.02813e-09
4 4 2.83952e-25 1.60218e-19 2.13733e-09 1.14928e-08 5.5622e-06
5 5 2.83952e-25 1.60218e-19 5.03371e-09 -3.24176e-09 1.17366e-05
ITEM: TIMESTEP
3300
ITEM: NUMBER OF ATOMS
5
ITEM: BOX BOUNDS mm mm mm
-1.0000000000000000e-03 1.0000000000000000e-03
-1.0000000000000000e-03 1.0000000000000000e-03
-1.0000000000000000e-03 1.0000000000000000e-03
ITEM: ATOMS id id mass q x y z
1 1 2.83952e-25 1.60218e-19 -1.63395e-08 -1.41509e-08 -1.20422e-05
2 2 2.83952e-25 1.60218e-19 1.64887e-08 1.93432e-08 -5.65985e-06
3 3 2.83952e-25 1.60218e-19 5.90664e-09 1.21405e-08 7.12952e-10
4 4 2.83952e-25 1.60218e-19 7.44009e-10 -1.26286e-08 5.65932e-06
5 5 2.83952e-25 1.60218e-19 -4.12282e-09 3.88992e-09 1.20421e-05
ITEM: TIMESTEP
3400
ITEM: NUMBER OF ATOMS
5
ITEM: BOX BOUNDS mm mm mm
-1.0000000000000000e-03 1.0000000000000000e-03
-1.0000000000000000e-03 1.0000000000000000e-03
-1.0000000000000000e-03 1.0000000000000000e-03
ITEM: ATOMS id id mass q x y z
1 1 2.83952e-25 1.60218e-19 1.86268e-08 1.53889e-08 -1.12672e-05
2 2 2.83952e-25 1.60218e-19 -1.47116e-08 -1.62911e-08 -5.32407e-06
3 3 2.83952e-25 1.60218e-19 -5.16934e-09 -1.22547e-08 -4.83556e-10
4 4 2.83952e-25 1.60218e-19 -2.71248e-09 1.18981e-08 5.32461e-06
5 5 2.83952e-25 1.60218e-19 2.39095e-09 -3.79974e-09 1.12672e-05
ITEM: TIMESTEP
3500
ITEM: NUMBER OF ATOMS
5
ITEM: BOX BOUNDS mm mm mm
-1.0000000000000000e-03 1.0000000000000000e-03
-1.0000000000000000e-03 1.0000000000000000e-03
-1.0000000000000000e-03 1.0000000000000000e-03
ITEM: ATOMS id id mass q x y z
1 1 2.83952e-25 1.60218e-19 -1.65801e-08 -1.34208e-08 -1.0942e-05
2 2 2.83952e-25 1.60218e-19 1.08957e-08 1.08279e-08 -5.15846e-06
3 3 2.83952e-25 1.60218e-19 2.91617e-09 9.96935e-09 6.85896e-10
4 4 2.83952e-25 1.60218e-19 3.455e-09 -1.00132e-08 5.15723e-06
5 5 2.83952e-25 1.60218e-19 -5.23524e-10 3.16107e-09 1.09425e-05
ITEM: TIMESTEP
3600
ITEM: NUMBER OF ATOMS
5
ITEM: BOX BOUNDS mm mm mm
-1.0000000000000000e-03 1.0000000000000000e-03
-1.0000000000000000e-03 1.0000000000000000e-03
-1.0000000000000000e-03 1.0000000000000000e-03
ITEM: ATOMS id id mass q x y z
1 1 2.83952e-25 1.60218e-19 1.12335e-08 8.94338e-09 -1.15659e-05
2 2 2.83952e-25 1.60218e-19 -6.12634e-09 -4.25229e-09 -5.45114e-06
3 3 2.83952e-25 1.60218e-19 1.63185e-10 -6.38783e-09 -8.79595e-10
4 4 2.83952e-25 1.60218e-19 -3.21267e-09 7.31164e-09 5.45259e-06
5 5 2.83952e-25 1.60218e-19 -9.82791e-10 -2.16418e-09 1.15653e-05
ITEM: TIMESTEP
3700
ITEM: NUMBER OF ATOMS
5
ITEM: BOX BOUNDS mm mm mm
-1.0000000000000000e-03 1.0000000000000000e-03
-1.0000000000000000e-03 1.0000000000000000e-03
-1.0000000000000000e-03 1.0000000000000000e-03
ITEM: ATOMS id id mass q x y z
1 1 2.83952e-25 1.60218e-19 -4.02904e-09 -2.98662e-09 -1.18758e-05
2 2 2.83952e-25 1.60218e-19 1.19139e-09 -2.24062e-09 -5.61405e-06
3 3 2.83952e-25 1.60218e-19 -3.18938e-09 2.38042e-09 8.57799e-10
4 4 2.83952e-25 1.60218e-19 2.36135e-09 -3.8676e-09 5.61284e-06
5 5 2.83952e-25 1.60218e-19 1.88113e-09 9.8553e-10 1.18762e-05
ITEM: TIMESTEP
3800
ITEM: NUMBER OF ATOMS
5
ITEM: BOX BOUNDS mm mm mm
-1.0000000000000000e-03 1.0000000000000000e-03
-1.0000000000000000e-03 1.0000000000000000e-03
-1.0000000000000000e-03 1.0000000000000000e-03
ITEM: ATOMS id id mass q x y z
1 1 2.83952e-25 1.60218e-19 -3.00572e-09 -2.84278e-09 -1.13982e-05
2 2 2.83952e-25 1.60218e-19 2.85752e-09 7.17806e-09 -5.36142e-06
3 3 2.83952e-25 1.60218e-19 5.31351e-09 1.06043e-09 -8.89573e-10
4 4 2.83952e-25 1.60218e-19 -1.25189e-09 3.79085e-10 5.36231e-06
5 5 2.83952e-25 1.60218e-19 -2.08274e-09 1.02241e-10 1.13982e-05
ITEM: TIMESTEP
3900
ITEM: NUMBER OF ATOMS
5
ITEM: BOX BOUNDS mm mm mm
-1.0000000000000000e-03 1.0000000000000000e-03
-1.0000000000000000e-03 1.0000000000000000e-03
-1.0000000000000000e-03 1.0000000000000000e-03
ITEM: ATOMS id id mass q x y z
1 1 2.83952e-25 1.60218e-19 8.19119e-09 7.21578e-09 -1.10662e-05
2 2 2.83952e-25 1.60218e-19 -5.37794e-09 -9.82511e-09 -5.23375e-06
3 3 2.83952e-25 1.60218e-19 -6.13261e-09 -3.25721e-09 9.91407e-10
4 4 2.83952e-25 1.60218e-19 3.02543e-10 2.56509e-09 5.23272e-06
5 5 2.83952e-25 1.60218e-19 1.7122e-09 -8.86731e-10 1.10662e-05
ITEM: TIMESTEP
4000
ITEM: NUMBER OF ATOMS
5
ITEM: BOX BOUNDS mm mm mm
-1.0000000000000000e-03 1.0000000000000000e-03
-1.0000000000000000e-03 1.0000000000000000e-03
-1.0000000000000000e-03 1.0000000000000000e-03
ITEM: ATOMS id id mass q x y z
1 1 2.83952e-25 1.60218e-19 -1.08186e-08 -9.57173e-09 -1.14642e-05
2 2 2.83952e-25 1.60218e-19 6.51365e-09 1.03547e-08 -5.3955e-06
3 3 2.83952e-25 1.60218e-19 5.55317e-09 4.19474e-09 -9.78044e-10
4 4 2.83952e-25 1.60218e-19 2.37674e-10 -4.89737e-09 5.39665e-06
5 5 2.83952e-25 1.60218e-19 -1.02629e-09 1.39517e-09 1.14641e-05
ITEM: TIMESTEP
4100
ITEM: NUMBER OF ATOMS
5
ITEM: BOX BOUNDS mm mm mm
-1.0000000000000000e-03 1.0000000000000000e-03
-1.0000000000000000e-03 1.0000000000000000e-03
-1.0000000000000000e-03 1.0000000000000000e-03
ITEM: ATOMS id id mass q x y z
1 1 2.83952e-25 1.60218e-19 1.06721e-08 9.64366e-09 -1.17526e-05
2 2 2.83952e-25 1.60218e-19 -6.4339e-09 -9.0306e-09 -5.55077e-06
3 3 2.83952e-25 1.60218e-19 -3.7424e-09 -4.07321e-09 8.14011e-10
4 4 2.83952e-25 1.60218e-19 -3.57625e-10 6.38444e-09 5.54956e-06
5 5 2.83952e-25 1.60218e-19 2.54682e-10 -1.66325e-09 1.1753e-05
ITEM: TIMESTEP
4200
ITEM: NUMBER OF ATOMS
5
ITEM: BOX BOUNDS mm mm mm
-1.0000000000000000e-03 1.0000000000000000e-03
-1.0000000000000000e-03 1.0000000000000000e-03
-1.0000000000000000e-03 1.0000000000000000e-03
ITEM: ATOMS id id mass q x y z
1 1 2.83952e-25 1.60218e-19 -8.13015e-09 -7.64445e-09 -1.14599e-05
2 2 2.83952e-25 1.60218e-19 5.32165e-09 6.3574e-09 -5.40417e-06
3 3 2.83952e-25 1.60218e-19 1.25758e-09 3.15001e-09 -7.05638e-10
4 4 2.83952e-25 1.60218e-19 1.56532e-10 -6.71707e-09 5.40528e-06
5 5 2.83952e-25 1.60218e-19 4.05893e-10 1.68076e-09 1.14595e-05
ITEM: TIMESTEP
4300
ITEM: NUMBER OF ATOMS
5
ITEM: BOX BOUNDS mm mm mm
-1.0000000000000000e-03 1.0000000000000000e-03
-1.0000000000000000e-03 1.0000000000000000e-03
-1.0000000000000000e-03 1.0000000000000000e-03
ITEM: ATOMS id id mass q x y z
1 1 2.83952e-25 1.60218e-19 4.21161e-09 4.35831e-09 -1.11796e-05
2 2 2.83952e-25 1.60218e-19 -3.62654e-09 -3.15776e-09 -5.27064e-06
3 3 2.83952e-25 1.60218e-19 1.22819e-09 -1.85981e-09 7.38302e-10
4 4 2.83952e-25 1.60218e-19 1.99212e-10 5.98109e-09 5.26961e-06
5 5 2.83952e-25 1.60218e-19 -8.2804e-10 -1.51942e-09 1.11799e-05
ITEM: TIMESTEP
4400
ITEM: NUMBER OF ATOMS
5
ITEM: BOX BOUNDS mm mm mm
-1.0000000000000000e-03 1.0000000000000000e-03
-1.0000000000000000e-03 1.0000000000000000e-03
-1.0000000000000000e-03 1.0000000000000000e-03
ITEM: ATOMS id id mass q x y z
1 1 2.83952e-25 1.60218e-19 -1.92922e-11 -6.55581e-10 -1.14034e-05
2 2 2.83952e-25 1.60218e-19 1.76898e-09 2.31441e-11 -5.38426e-06
3 3 2.83952e-25 1.60218e-19 -3.26601e-09 6.37372e-10 -7.97273e-10
4 4 2.83952e-25 1.60218e-19 -4.57339e-10 -4.41254e-09 5.38518e-06
5 5 2.83952e-25 1.60218e-19 9.89912e-10 1.24948e-09 1.14032e-05
ITEM: TIMESTEP
4500
ITEM: NUMBER OF ATOMS
5
ITEM: BOX BOUNDS mm mm mm
-1.0000000000000000e-03 1.0000000000000000e-03
-1.0000000000000000e-03 1.0000000000000000e-03
-1.0000000000000000e-03 1.0000000000000000e-03
ITEM: ATOMS id id mass q x y z
1 1 2.83952e-25 1.60218e-19 -3.51305e-09 -2.68449e-09 -1.16607e-05
2 2 2.83952e-25 1.60218e-19 -3.57863e-12 2.66067e-09 -5.49278e-06
3 3 2.83952e-25 1.60218e-19 4.50778e-09 2.70346e-10 7.74875e-10
4 4 2.83952e-25 1.60218e-19 4.43547e-10 2.27445e-09 5.49194e-06
5 5 2.83952e-25 1.60218e-19 -9.23284e-10 -8.79164e-10 1.16608e-05
ITEM: TIMESTEP
4600
ITEM: NUMBER OF ATOMS
5
ITEM: BOX BOUNDS mm mm mm
-1.0000000000000000e-03 1.0000000000000000e-03
-1.0000000000000000e-03 1.0000000000000000e-03
-1.0000000000000000e-03 1.0000000000000000e-03
ITEM: ATOMS id id mass q x y z
1 1 2.83952e-25 1.60218e-19 5.63472e-09 4.93607e-09 -1.14883e-05
2 2 2.83952e-25 1.60218e-19 -1.38723e-09 -4.47509e-09 -5.42591e-06
3 3 2.83952e-25 1.60218e-19 -4.7474e-09 -7.48032e-10 -6.72421e-10
4 4 2.83952e-25 1.60218e-19 -1.43288e-10 -1.76109e-11 5.42671e-06
5 5 2.83952e-25 1.60218e-19 6.86809e-10 4.44669e-10 1.14882e-05
ITEM: TIMESTEP
4700
ITEM: NUMBER OF ATOMS
5
ITEM: BOX BOUNDS mm mm mm
-1.0000000000000000e-03 1.0000000000000000e-03
-1.0000000000000000e-03 1.0000000000000000e-03
-1.0000000000000000e-03 1.0000000000000000e-03
ITEM: ATOMS id id mass q x y z
1 1 2.83952e-25 1.60218e-19 -6.07561e-09 -5.75572e-09 -1.12636e-05
2 2 2.83952e-25 1.60218e-19 2.23122e-09 5.2551e-09 -5.3076e-06
3 3 2.83952e-25 1.60218e-19 4.07411e-09 8.02065e-10 5.53309e-10
4 4 2.83952e-25 1.60218e-19 -3.61613e-10 -1.89839e-09 5.30681e-06
5 5 2.83952e-25 1.60218e-19 -3.65031e-10 1.65961e-12 1.12638e-05
ITEM: TIMESTEP
4800
ITEM: NUMBER OF ATOMS
5
ITEM: BOX BOUNDS mm mm mm
-1.0000000000000000e-03 1.0000000000000000e-03
-1.0000000000000000e-03 1.0000000000000000e-03
-1.0000000000000000e-03 1.0000000000000000e-03
ITEM: ATOMS id id mass q x y z
1 1 2.83952e-25 1.60218e-19 5.05482e-09 5.23232e-09 -1.13813e-05
2 2 2.83952e-25 1.60218e-19 -2.54623e-09 -5.12167e-09 -5.37145e-06
3 3 2.83952e-25 1.60218e-19 -2.74871e-09 -5.65972e-10 -4.8427e-10
4 4 2.83952e-25 1.60218e-19 9.39012e-10 3.22349e-09 5.3722e-06
5 5 2.83952e-25 1.60218e-19 2.59282e-11 -4.41273e-10 1.13811e-05
ITEM: TIMESTEP
4900
ITEM: NUMBER OF ATOMS
5
ITEM: BOX BOUNDS mm mm mm
-1.0000000000000000e-03 1.0000000000000000e-03
-1.0000000000000000e-03 1.0000000000000000e-03
-1.0000000000000000e-03 1.0000000000000000e-03
ITEM: ATOMS id id mass q x y z
1 1 2.83952e-25 1.60218e-19 -3.05268e-09 -3.69068e-09 -1.15847e-05
2 2 2.83952e-25 1.60218e-19 2.405e-09 4.2412e-09 -5.46407e-06
3 3 2.83952e-25 1.60218e-19 1.07733e-09 2.14037e-10 4.65986e-10
4 4 2.83952e-25 1.60218e-19 -1.40696e-09 -3.8245e-09 5.46341e-06
5 5 2.83952e-25 1.60218e-19 2.8448e-10 8.35773e-10 1.15849e-05
ITEM: TIMESTEP
5000
ITEM: NUMBER OF ATOMS
5
ITEM: BOX BOUNDS mm mm mm
-1.0000000000000000e-03 1.0000000000000000e-03
-1.0000000000000000e-03 1.0000000000000000e-03
-1.0000000000000000e-03 1.0000000000000000e-03
ITEM: ATOMS id id mass q x y z
1 1 2.83952e-25 1.60218e-19 6.98962e-10 1.62647e-09 -1.15022e-05
2 2 2.83952e-25 1.60218e-19 -1.89567e-09 -2.84115e-09 -5.4231e-06
3 3 2.83952e-25 1.60218e-19 5.60384e-10 1.16636e-10 -4.68225e-10
4 4 2.83952e-25 1.60218e-19 1.61052e-09 3.6608e-09 5.42364e-06
5 5 2.83952e-25 1.60218e-19 -5.22058e-10 -1.11127e-09 1.15021e-05
ITEM: TIMESTEP
5100
ITEM: NUMBER OF ATOMS
5
ITEM: BOX BOUNDS mm mm mm
-1.0000000000000000e-03 1.0000000000000000e-03
-1.0000000000000000e-03 1.0000000000000000e-03
-1.0000000000000000e-03 1.0000000000000000e-03
ITEM: ATOMS id id mass q x y z
1 1 2.83952e-25 1.60218e-19 1.37229e-09 3.9314e-10 -1.13216e-05
2 2 2.83952e-25 1.60218e-19 1.17668e-09 1.24144e-09 -5.34405e-06
3 3 2.83952e-25 1.60218e-19 -1.83367e-09 -3.28175e-10 4.33357e-10
4 4 2.83952e-25 1.60218e-19 -1.48356e-09 -2.87387e-09 5.34359e-06
5 5 2.83952e-25 1.60218e-19 6.58058e-10 1.21368e-09 1.13216e-05
ITEM: TIMESTEP
5200
ITEM: NUMBER OF ATOMS
5
ITEM: BOX BOUNDS mm mm mm
-1.0000000000000000e-03 1.0000000000000000e-03
-1.0000000000000000e-03 1.0000000000000000e-03
-1.0000000000000000e-03 1.0000000000000000e-03
ITEM: ATOMS id id mass q x y z
1 1 2.83952e-25 1.60218e-19 -2.73333e-09 -1.94207e-09 -1.13792e-05
2 2 2.83952e-25 1.60218e-19 -4.0403e-10 3.03101e-10 -5.36292e-06
3 3 2.83952e-25 1.60218e-19 2.57357e-09 3.7303e-10 -3.6351e-10
4 4 2.83952e-25 1.60218e-19 1.03681e-09 1.70827e-09 5.36334e-06